V -t * -v 1.0a5 -a 0
A -t * -n 1 -p 0 -o 0x7fffffff -c 30 -a 1
A -t * -h 1 -m 1073741823 -s 0
n -t * -a 4 -s 4 -S UP -v circle -c black -i black
n -t * -a 0 -s 0 -S UP -v circle -c black -i black
n -t * -a 5 -s 5 -S UP -v circle -c black -i black
n -t * -a 1 -s 1 -S UP -v circle -c black -i black
n -t * -a 2 -s 2 -S UP -v circle -c black -i black
n -t * -a 3 -s 3 -S UP -v circle -c black -i black
l -t * -s 0 -d 2 -S UP -r 1000000 -D 0.01 -c black
l -t * -s 2 -d 1 -S UP -r 10000000 -D 0.01 -c black
l -t * -s 2 -d 3 -S UP -r 100000 -D 0.01 -c black
l -t * -s 3 -d 4 -S UP -r 100000 -D 0.01 -c black
l -t * -s 3 -d 5 -S UP -r 50000 -D 0.01 -c black
+ -t 0.1 -s 0 -d 2 -p ping -e 64 -c 0 -i 0 -a 0 -x {0.0 4.0 -1 ------- null}
- -t 0.1 -s 0 -d 2 -p ping -e 64 -c 0 -i 0 -a 0 -x {0.0 4.0 -1 ------- null}
h -t 0.1 -s 0 -d 2 -p ping -e 64 -c 0 -i 0 -a 0 -x {0.0 4.0 -1 ------- null}
+ -t 0.1 -s 5 -d 3 -p ping -e 64 -c 0 -i 1 -a 0 -x {5.0 1.0 -1 ------- null}
- -t 0.1 -s 5 -d 3 -p ping -e 64 -c 0 -i 1 -a 0 -x {5.0 1.0 -1 ------- null}
h -t 0.1 -s 5 -d 3 -p ping -e 64 -c 0 -i 1 -a 0 -x {5.0 1.0 -1 ------- null}
r -t 0.110512 -s 0 -d 2 -p ping -e 64 -c 0 -i 0 -a 0 -x {0.0 4.0 -1 ------- null}
+ -t 0.110512 -s 2 -d 3 -p ping -e 64 -c 0 -i 0 -a 0 -x {0.0 4.0 -1 ------- null}
- -t 0.110512 -s 2 -d 3 -p ping -e 64 -c 0 -i 0 -a 0 -x {0.0 4.0 -1 ------- null}
h -t 0.110512 -s 2 -d 3 -p ping -e 64 -c 0 -i 0 -a 0 -x {0.0 4.0 -1 ------- null}
r -t 0.12024 -s 5 -d 3 -p ping -e 64 -c 0 -i 1 -a 0 -x {5.0 1.0 -1 ------- null}
+ -t 0.12024 -s 3 -d 2 -p ping -e 64 -c 0 -i 1 -a 0 -x {5.0 1.0 -1 ------- null}
- -t 0.12024 -s 3 -d 2 -p ping -e 64 -c 0 -i 1 -a 0 -x {5.0 1.0 -1 ------- null}
h -t 0.12024 -s 3 -d 2 -p ping -e 64 -c 0 -i 1 -a 0 -x {5.0 1.0 -1 ------- null}
r -t 0.125632 -s 2 -d 3 -p ping -e 64 -c 0 -i 0 -a 0 -x {0.0 4.0 -1 ------- null}
+ -t 0.125632 -s 3 -d 4 -p ping -e 64 -c 0 -i 0 -a 0 -x {0.0 4.0 -1 ------- null}
- -t 0.125632 -s 3 -d 4 -p ping -e 64 -c 0 -i 0 -a 0 -x {0.0 4.0 -1 ------- null}
h -t 0.125632 -s 3 -d 4 -p ping -e 64 -c 0 -i 0 -a 0 -x {0.0 4.0 -1 ------- null}
r -t 0.13536 -s 3 -d 2 -p ping -e 64 -c 0 -i 1 -a 0 -x {5.0 1.0 -1 ------- null}
+ -t 0.13536 -s 2 -d 1 -p ping -e 64 -c 0 -i 1 -a 0 -x {5.0 1.0 -1 ------- null}
- -t 0.13536 -s 2 -d 1 -p ping -e 64 -c 0 -i 1 -a 0 -x {5.0 1.0 -1 ------- null}
h -t 0.13536 -s 2 -d 1 -p ping -e 64 -c 0 -i 1 -a 0 -x {5.0 1.0 -1 ------- null}
r -t 0.140752 -s 3 -d 4 -p ping -e 64 -c 0 -i 0 -a 0 -x {0.0 4.0 -1 ------- null}
+ -t 0.140752 -s 4 -d 3 -p ping -e 64 -c 0 -i 2 -a 0 -x {4.0 0.0 -1 ------- null}
- -t 0.140752 -s 4 -d 3 -p ping -e 64 -c 0 -i 2 -a 0 -x {4.0 0.0 -1 ------- null}
h -t 0.140752 -s 4 -d 3 -p ping -e 64 -c 0 -i 2 -a 0 -x {4.0 0.0 -1 ------- null}
r -t 0.1454112 -s 2 -d 1 -p ping -e 64 -c 0 -i 1 -a 0 -x {5.0 1.0 -1 ------- null}
+ -t 0.1454112 -s 1 -d 2 -p ping -e 64 -c 0 -i 3 -a 0 -x {1.0 5.0 -1 ------- null}
- -t 0.1454112 -s 1 -d 2 -p ping -e 64 -c 0 -i 3 -a 0 -x {1.0 5.0 -1 ------- null}
h -t 0.1454112 -s 1 -d 2 -p ping -e 64 -c 0 -i 3 -a 0 -x {1.0 5.0 -1 ------- null}
r -t 0.1554624 -s 1 -d 2 -p ping -e 64 -c 0 -i 3 -a 0 -x {1.0 5.0 -1 ------- null}
+ -t 0.1554624 -s 2 -d 3 -p ping -e 64 -c 0 -i 3 -a 0 -x {1.0 5.0 -1 ------- null}
- -t 0.1554624 -s 2 -d 3 -p ping -e 64 -c 0 -i 3 -a 0 -x {1.0 5.0 -1 ------- null}
h -t 0.1554624 -s 2 -d 3 -p ping -e 64 -c 0 -i 3 -a 0 -x {1.0 5.0 -1 ------- null}
r -t 0.155872 -s 4 -d 3 -p ping -e 64 -c 0 -i 2 -a 0 -x {4.0 0.0 -1 ------- null}
+ -t 0.155872 -s 3 -d 2 -p ping -e 64 -c 0 -i 2 -a 0 -x {4.0 0.0 -1 ------- null}
- -t 0.155872 -s 3 -d 2 -p ping -e 64 -c 0 -i 2 -a 0 -x {4.0 0.0 -1 ------- null}
h -t 0.155872 -s 3 -d 2 -p ping -e 64 -c 0 -i 2 -a 0 -x {4.0 0.0 -1 ------- null}
r -t 0.1705824 -s 2 -d 3 -p ping -e 64 -c 0 -i 3 -a 0 -x {1.0 5.0 -1 ------- null}
+ -t 0.1705824 -s 3 -d 5 -p ping -e 64 -c 0 -i 3 -a 0 -x {1.0 5.0 -1 ------- null}
- -t 0.1705824 -s 3 -d 5 -p ping -e 64 -c 0 -i 3 -a 0 -x {1.0 5.0 -1 ------- null}
h -t 0.1705824 -s 3 -d 5 -p ping -e 64 -c 0 -i 3 -a 0 -x {1.0 5.0 -1 ------- null}
r -t 0.170992 -s 3 -d 2 -p ping -e 64 -c 0 -i 2 -a 0 -x {4.0 0.0 -1 ------- null}
+ -t 0.170992 -s 2 -d 0 -p ping -e 64 -c 0 -i 2 -a 0 -x {4.0 0.0 -1 ------- null}
- -t 0.170992 -s 2 -d 0 -p ping -e 64 -c 0 -i 2 -a 0 -x {4.0 0.0 -1 ------- null}
h -t 0.170992 -s 2 -d 0 -p ping -e 64 -c 0 -i 2 -a 0 -x {4.0 0.0 -1 ------- null}
r -t 0.181504 -s 2 -d 0 -p ping -e 64 -c 0 -i 2 -a 0 -x {4.0 0.0 -1 ------- null}
r -t 0.1908224 -s 3 -d 5 -p ping -e 64 -c 0 -i 3 -a 0 -x {1.0 5.0 -1 ------- null}
+ -t 0.2 -s 0 -d 2 -p ping -e 64 -c 0 -i 4 -a 0 -x {0.0 4.0 -1 ------- null}
- -t 0.2 -s 0 -d 2 -p ping -e 64 -c 0 -i 4 -a 0 -x {0.0 4.0 -1 ------- null}
h -t 0.2 -s 0 -d 2 -p ping -e 64 -c 0 -i 4 -a 0 -x {0.0 4.0 -1 ------- null}
+ -t 0.2 -s 5 -d 3 -p ping -e 64 -c 0 -i 5 -a 0 -x {5.0 1.0 -1 ------- null}
- -t 0.2 -s 5 -d 3 -p ping -e 64 -c 0 -i 5 -a 0 -x {5.0 1.0 -1 ------- null}
h -t 0.2 -s 5 -d 3 -p ping -e 64 -c 0 -i 5 -a 0 -x {5.0 1.0 -1 ------- null}
r -t 0.210512 -s 0 -d 2 -p ping -e 64 -c 0 -i 4 -a 0 -x {0.0 4.0 -1 ------- null}
+ -t 0.210512 -s 2 -d 3 -p ping -e 64 -c 0 -i 4 -a 0 -x {0.0 4.0 -1 ------- null}
- -t 0.210512 -s 2 -d 3 -p ping -e 64 -c 0 -i 4 -a 0 -x {0.0 4.0 -1 ------- null}
h -t 0.210512 -s 2 -d 3 -p ping -e 64 -c 0 -i 4 -a 0 -x {0.0 4.0 -1 ------- null}
r -t 0.22024 -s 5 -d 3 -p ping -e 64 -c 0 -i 5 -a 0 -x {5.0 1.0 -1 ------- null}
+ -t 0.22024 -s 3 -d 2 -p ping -e 64 -c 0 -i 5 -a 0 -x {5.0 1.0 -1 ------- null}
- -t 0.22024 -s 3 -d 2 -p ping -e 64 -c 0 -i 5 -a 0 -x {5.0 1.0 -1 ------- null}
h -t 0.22024 -s 3 -d 2 -p ping -e 64 -c 0 -i 5 -a 0 -x {5.0 1.0 -1 ------- null}
r -t 0.225632 -s 2 -d 3 -p ping -e 64 -c 0 -i 4 -a 0 -x {0.0 4.0 -1 ------- null}
+ -t 0.225632 -s 3 -d 4 -p ping -e 64 -c 0 -i 4 -a 0 -x {0.0 4.0 -1 ------- null}
- -t 0.225632 -s 3 -d 4 -p ping -e 64 -c 0 -i 4 -a 0 -x {0.0 4.0 -1 ------- null}
h -t 0.225632 -s 3 -d 4 -p ping -e 64 -c 0 -i 4 -a 0 -x {0.0 4.0 -1 ------- null}
r -t 0.23536 -s 3 -d 2 -p ping -e 64 -c 0 -i 5 -a 0 -x {5.0 1.0 -1 ------- null}
+ -t 0.23536 -s 2 -d 1 -p ping -e 64 -c 0 -i 5 -a 0 -x {5.0 1.0 -1 ------- null}
- -t 0.23536 -s 2 -d 1 -p ping -e 64 -c 0 -i 5 -a 0 -x {5.0 1.0 -1 ------- null}
h -t 0.23536 -s 2 -d 1 -p ping -e 64 -c 0 -i 5 -a 0 -x {5.0 1.0 -1 ------- null}
r -t 0.240752 -s 3 -d 4 -p ping -e 64 -c 0 -i 4 -a 0 -x {0.0 4.0 -1 ------- null}
+ -t 0.240752 -s 4 -d 3 -p ping -e 64 -c 0 -i 6 -a 0 -x {4.0 0.0 -1 ------- null}
- -t 0.240752 -s 4 -d 3 -p ping -e 64 -c 0 -i 6 -a 0 -x {4.0 0.0 -1 ------- null}
h -t 0.240752 -s 4 -d 3 -p ping -e 64 -c 0 -i 6 -a 0 -x {4.0 0.0 -1 ------- null}
r -t 0.2454112 -s 2 -d 1 -p ping -e 64 -c 0 -i 5 -a 0 -x {5.0 1.0 -1 ------- null}
+ -t 0.2454112 -s 1 -d 2 -p ping -e 64 -c 0 -i 7 -a 0 -x {1.0 5.0 -1 ------- null}
- -t 0.2454112 -s 1 -d 2 -p ping -e 64 -c 0 -i 7 -a 0 -x {1.0 5.0 -1 ------- null}
h -t 0.2454112 -s 1 -d 2 -p ping -e 64 -c 0 -i 7 -a 0 -x {1.0 5.0 -1 ------- null}
r -t 0.2554624 -s 1 -d 2 -p ping -e 64 -c 0 -i 7 -a 0 -x {1.0 5.0 -1 ------- null}
+ -t 0.2554624 -s 2 -d 3 -p ping -e 64 -c 0 -i 7 -a 0 -x {1.0 5.0 -1 ------- null}
- -t 0.2554624 -s 2 -d 3 -p ping -e 64 -c 0 -i 7 -a 0 -x {1.0 5.0 -1 ------- null}
h -t 0.2554624 -s 2 -d 3 -p ping -e 64 -c 0 -i 7 -a 0 -x {1.0 5.0 -1 ------- null}
r -t 0.255872 -s 4 -d 3 -p ping -e 64 -c 0 -i 6 -a 0 -x {4.0 0.0 -1 ------- null}
+ -t 0.255872 -s 3 -d 2 -p ping -e 64 -c 0 -i 6 -a 0 -x {4.0 0.0 -1 ------- null}
- -t 0.255872 -s 3 -d 2 -p ping -e 64 -c 0 -i 6 -a 0 -x {4.0 0.0 -1 ------- null}
h -t 0.255872 -s 3 -d 2 -p ping -e 64 -c 0 -i 6 -a 0 -x {4.0 0.0 -1 ------- null}
r -t 0.2705824 -s 2 -d 3 -p ping -e 64 -c 0 -i 7 -a 0 -x {1.0 5.0 -1 ------- null}
+ -t 0.2705824 -s 3 -d 5 -p ping -e 64 -c 0 -i 7 -a 0 -x {1.0 5.0 -1 ------- null}
- -t 0.2705824 -s 3 -d 5 -p ping -e 64 -c 0 -i 7 -a 0 -x {1.0 5.0 -1 ------- null}
h -t 0.2705824 -s 3 -d 5 -p ping -e 64 -c 0 -i 7 -a 0 -x {1.0 5.0 -1 ------- null}
r -t 0.270992 -s 3 -d 2 -p ping -e 64 -c 0 -i 6 -a 0 -x {4.0 0.0 -1 ------- null}
+ -t 0.270992 -s 2 -d 0 -p ping -e 64 -c 0 -i 6 -a 0 -x {4.0 0.0 -1 ------- null}
- -t 0.270992 -s 2 -d 0 -p ping -e 64 -c 0 -i 6 -a 0 -x {4.0 0.0 -1 ------- null}
h -t 0.270992 -s 2 -d 0 -p ping -e 64 -c 0 -i 6 -a 0 -x {4.0 0.0 -1 ------- null}
r -t 0.281504 -s 2 -d 0 -p ping -e 64 -c 0 -i 6 -a 0 -x {4.0 0.0 -1 ------- null}
r -t 0.2908224 -s 3 -d 5 -p ping -e 64 -c 0 -i 7 -a 0 -x {1.0 5.0 -1 ------- null}
+ -t 0.3 -s 0 -d 2 -p ping -e 64 -c 0 -i 8 -a 0 -x {0.0 4.0 -1 ------- null}
- -t 0.3 -s 0 -d 2 -p ping -e 64 -c 0 -i 8 -a 0 -x {0.0 4.0 -1 ------- null}
h -t 0.3 -s 0 -d 2 -p ping -e 64 -c 0 -i 8 -a 0 -x {0.0 4.0 -1 ------- null}
+ -t 0.3 -s 5 -d 3 -p ping -e 64 -c 0 -i 9 -a 0 -x {5.0 1.0 -1 ------- null}
- -t 0.3 -s 5 -d 3 -p ping -e 64 -c 0 -i 9 -a 0 -x {5.0 1.0 -1 ------- null}
h -t 0.3 -s 5 -d 3 -p ping -e 64 -c 0 -i 9 -a 0 -x {5.0 1.0 -1 ------- null}
r -t 0.310512 -s 0 -d 2 -p ping -e 64 -c 0 -i 8 -a 0 -x {0.0 4.0 -1 ------- null}
+ -t 0.310512 -s 2 -d 3 -p ping -e 64 -c 0 -i 8 -a 0 -x {0.0 4.0 -1 ------- null}
- -t 0.310512 -s 2 -d 3 -p ping -e 64 -c 0 -i 8 -a 0 -x {0.0 4.0 -1 ------- null}
h -t 0.310512 -s 2 -d 3 -p ping -e 64 -c 0 -i 8 -a 0 -x {0.0 4.0 -1 ------- null}
r -t 0.32024 -s 5 -d 3 -p ping -e 64 -c 0 -i 9 -a 0 -x {5.0 1.0 -1 ------- null}
+ -t 0.32024 -s 3 -d 2 -p ping -e 64 -c 0 -i 9 -a 0 -x {5.0 1.0 -1 ------- null}
- -t 0.32024 -s 3 -d 2 -p ping -e 64 -c 0 -i 9 -a 0 -x {5.0 1.0 -1 ------- null}
h -t 0.32024 -s 3 -d 2 -p ping -e 64 -c 0 -i 9 -a 0 -x {5.0 1.0 -1 ------- null}
r -t 0.325632 -s 2 -d 3 -p ping -e 64 -c 0 -i 8 -a 0 -x {0.0 4.0 -1 ------- null}
+ -t 0.325632 -s 3 -d 4 -p ping -e 64 -c 0 -i 8 -a 0 -x {0.0 4.0 -1 ------- null}
- -t 0.325632 -s 3 -d 4 -p ping -e 64 -c 0 -i 8 -a 0 -x {0.0 4.0 -1 ------- null}
h -t 0.325632 -s 3 -d 4 -p ping -e 64 -c 0 -i 8 -a 0 -x {0.0 4.0 -1 ------- null}
r -t 0.33536 -s 3 -d 2 -p ping -e 64 -c 0 -i 9 -a 0 -x {5.0 1.0 -1 ------- null}
+ -t 0.33536 -s 2 -d 1 -p ping -e 64 -c 0 -i 9 -a 0 -x {5.0 1.0 -1 ------- null}
- -t 0.33536 -s 2 -d 1 -p ping -e 64 -c 0 -i 9 -a 0 -x {5.0 1.0 -1 ------- null}
h -t 0.33536 -s 2 -d 1 -p ping -e 64 -c 0 -i 9 -a 0 -x {5.0 1.0 -1 ------- null}
r -t 0.340752 -s 3 -d 4 -p ping -e 64 -c 0 -i 8 -a 0 -x {0.0 4.0 -1 ------- null}
+ -t 0.340752 -s 4 -d 3 -p ping -e 64 -c 0 -i 10 -a 0 -x {4.0 0.0 -1 ------- null}
- -t 0.340752 -s 4 -d 3 -p ping -e 64 -c 0 -i 10 -a 0 -x {4.0 0.0 -1 ------- null}
h -t 0.340752 -s 4 -d 3 -p ping -e 64 -c 0 -i 10 -a 0 -x {4.0 0.0 -1 ------- null}
r -t 0.3454112 -s 2 -d 1 -p ping -e 64 -c 0 -i 9 -a 0 -x {5.0 1.0 -1 ------- null}
+ -t 0.3454112 -s 1 -d 2 -p ping -e 64 -c 0 -i 11 -a 0 -x {1.0 5.0 -1 ------- null}
- -t 0.3454112 -s 1 -d 2 -p ping -e 64 -c 0 -i 11 -a 0 -x {1.0 5.0 -1 ------- null}
h -t 0.3454112 -s 1 -d 2 -p ping -e 64 -c 0 -i 11 -a 0 -x {1.0 5.0 -1 ------- null}
r -t 0.3554624 -s 1 -d 2 -p ping -e 64 -c 0 -i 11 -a 0 -x {1.0 5.0 -1 ------- null}
+ -t 0.3554624 -s 2 -d 3 -p ping -e 64 -c 0 -i 11 -a 0 -x {1.0 5.0 -1 ------- null}
- -t 0.3554624 -s 2 -d 3 -p ping -e 64 -c 0 -i 11 -a 0 -x {1.0 5.0 -1 ------- null}
h -t 0.3554624 -s 2 -d 3 -p ping -e 64 -c 0 -i 11 -a 0 -x {1.0 5.0 -1 ------- null}
r -t 0.355872 -s 4 -d 3 -p ping -e 64 -c 0 -i 10 -a 0 -x {4.0 0.0 -1 ------- null}
+ -t 0.355872 -s 3 -d 2 -p ping -e 64 -c 0 -i 10 -a 0 -x {4.0 0.0 -1 ------- null}
- -t 0.355872 -s 3 -d 2 -p ping -e 64 -c 0 -i 10 -a 0 -x {4.0 0.0 -1 ------- null}
h -t 0.355872 -s 3 -d 2 -p ping -e 64 -c 0 -i 10 -a 0 -x {4.0 0.0 -1 ------- null}
r -t 0.3705824 -s 2 -d 3 -p ping -e 64 -c 0 -i 11 -a 0 -x {1.0 5.0 -1 ------- null}
+ -t 0.3705824 -s 3 -d 5 -p ping -e 64 -c 0 -i 11 -a 0 -x {1.0 5.0 -1 ------- null}
- -t 0.3705824 -s 3 -d 5 -p ping -e 64 -c 0 -i 11 -a 0 -x {1.0 5.0 -1 ------- null}
h -t 0.3705824 -s 3 -d 5 -p ping -e 64 -c 0 -i 11 -a 0 -x {1.0 5.0 -1 ------- null}
r -t 0.370992 -s 3 -d 2 -p ping -e 64 -c 0 -i 10 -a 0 -x {4.0 0.0 -1 ------- null}
+ -t 0.370992 -s 2 -d 0 -p ping -e 64 -c 0 -i 10 -a 0 -x {4.0 0.0 -1 ------- null}
- -t 0.370992 -s 2 -d 0 -p ping -e 64 -c 0 -i 10 -a 0 -x {4.0 0.0 -1 ------- null}
h -t 0.370992 -s 2 -d 0 -p ping -e 64 -c 0 -i 10 -a 0 -x {4.0 0.0 -1 ------- null}
r -t 0.381504 -s 2 -d 0 -p ping -e 64 -c 0 -i 10 -a 0 -x {4.0 0.0 -1 ------- null}
r -t 0.3908224 -s 3 -d 5 -p ping -e 64 -c 0 -i 11 -a 0 -x {1.0 5.0 -1 ------- null}
+ -t 0.4 -s 0 -d 2 -p ping -e 64 -c 0 -i 12 -a 0 -x {0.0 4.0 -1 ------- null}
- -t 0.4 -s 0 -d 2 -p ping -e 64 -c 0 -i 12 -a 0 -x {0.0 4.0 -1 ------- null}
h -t 0.4 -s 0 -d 2 -p ping -e 64 -c 0 -i 12 -a 0 -x {0.0 4.0 -1 ------- null}
+ -t 0.4 -s 5 -d 3 -p ping -e 64 -c 0 -i 13 -a 0 -x {5.0 1.0 -1 ------- null}
- -t 0.4 -s 5 -d 3 -p ping -e 64 -c 0 -i 13 -a 0 -x {5.0 1.0 -1 ------- null}
h -t 0.4 -s 5 -d 3 -p ping -e 64 -c 0 -i 13 -a 0 -x {5.0 1.0 -1 ------- null}
r -t 0.410512 -s 0 -d 2 -p ping -e 64 -c 0 -i 12 -a 0 -x {0.0 4.0 -1 ------- null}
+ -t 0.410512 -s 2 -d 3 -p ping -e 64 -c 0 -i 12 -a 0 -x {0.0 4.0 -1 ------- null}
- -t 0.410512 -s 2 -d 3 -p ping -e 64 -c 0 -i 12 -a 0 -x {0.0 4.0 -1 ------- null}
h -t 0.410512 -s 2 -d 3 -p ping -e 64 -c 0 -i 12 -a 0 -x {0.0 4.0 -1 ------- null}
r -t 0.42024 -s 5 -d 3 -p ping -e 64 -c 0 -i 13 -a 0 -x {5.0 1.0 -1 ------- null}
+ -t 0.42024 -s 3 -d 2 -p ping -e 64 -c 0 -i 13 -a 0 -x {5.0 1.0 -1 ------- null}
- -t 0.42024 -s 3 -d 2 -p ping -e 64 -c 0 -i 13 -a 0 -x {5.0 1.0 -1 ------- null}
h -t 0.42024 -s 3 -d 2 -p ping -e 64 -c 0 -i 13 -a 0 -x {5.0 1.0 -1 ------- null}
r -t 0.425632 -s 2 -d 3 -p ping -e 64 -c 0 -i 12 -a 0 -x {0.0 4.0 -1 ------- null}
+ -t 0.425632 -s 3 -d 4 -p ping -e 64 -c 0 -i 12 -a 0 -x {0.0 4.0 -1 ------- null}
- -t 0.425632 -s 3 -d 4 -p ping -e 64 -c 0 -i 12 -a 0 -x {0.0 4.0 -1 ------- null}
h -t 0.425632 -s 3 -d 4 -p ping -e 64 -c 0 -i 12 -a 0 -x {0.0 4.0 -1 ------- null}
r -t 0.43536 -s 3 -d 2 -p ping -e 64 -c 0 -i 13 -a 0 -x {5.0 1.0 -1 ------- null}
+ -t 0.43536 -s 2 -d 1 -p ping -e 64 -c 0 -i 13 -a 0 -x {5.0 1.0 -1 ------- null}
- -t 0.43536 -s 2 -d 1 -p ping -e 64 -c 0 -i 13 -a 0 -x {5.0 1.0 -1 ------- null}
h -t 0.43536 -s 2 -d 1 -p ping -e 64 -c 0 -i 13 -a 0 -x {5.0 1.0 -1 ------- null}
r -t 0.440752 -s 3 -d 4 -p ping -e 64 -c 0 -i 12 -a 0 -x {0.0 4.0 -1 ------- null}
+ -t 0.440752 -s 4 -d 3 -p ping -e 64 -c 0 -i 14 -a 0 -x {4.0 0.0 -1 ------- null}
- -t 0.440752 -s 4 -d 3 -p ping -e 64 -c 0 -i 14 -a 0 -x {4.0 0.0 -1 ------- null}
h -t 0.440752 -s 4 -d 3 -p ping -e 64 -c 0 -i 14 -a 0 -x {4.0 0.0 -1 ------- null}
r -t 0.4454112 -s 2 -d 1 -p ping -e 64 -c 0 -i 13 -a 0 -x {5.0 1.0 -1 ------- null}
+ -t 0.4454112 -s 1 -d 2 -p ping -e 64 -c 0 -i 15 -a 0 -x {1.0 5.0 -1 ------- null}
- -t 0.4454112 -s 1 -d 2 -p ping -e 64 -c 0 -i 15 -a 0 -x {1.0 5.0 -1 ------- null}
h -t 0.4454112 -s 1 -d 2 -p ping -e 64 -c 0 -i 15 -a 0 -x {1.0 5.0 -1 ------- null}
r -t 0.4554624 -s 1 -d 2 -p ping -e 64 -c 0 -i 15 -a 0 -x {1.0 5.0 -1 ------- null}
+ -t 0.4554624 -s 2 -d 3 -p ping -e 64 -c 0 -i 15 -a 0 -x {1.0 5.0 -1 ------- null}
- -t 0.4554624 -s 2 -d 3 -p ping -e 64 -c 0 -i 15 -a 0 -x {1.0 5.0 -1 ------- null}
h -t 0.4554624 -s 2 -d 3 -p ping -e 64 -c 0 -i 15 -a 0 -x {1.0 5.0 -1 ------- null}
r -t 0.455872 -s 4 -d 3 -p ping -e 64 -c 0 -i 14 -a 0 -x {4.0 0.0 -1 ------- null}
+ -t 0.455872 -s 3 -d 2 -p ping -e 64 -c 0 -i 14 -a 0 -x {4.0 0.0 -1 ------- null}
- -t 0.455872 -s 3 -d 2 -p ping -e 64 -c 0 -i 14 -a 0 -x {4.0 0.0 -1 ------- null}
h -t 0.455872 -s 3 -d 2 -p ping -e 64 -c 0 -i 14 -a 0 -x {4.0 0.0 -1 ------- null}
r -t 0.4705824 -s 2 -d 3 -p ping -e 64 -c 0 -i 15 -a 0 -x {1.0 5.0 -1 ------- null}
+ -t 0.4705824 -s 3 -d 5 -p ping -e 64 -c 0 -i 15 -a 0 -x {1.0 5.0 -1 ------- null}
- -t 0.4705824 -s 3 -d 5 -p ping -e 64 -c 0 -i 15 -a 0 -x {1.0 5.0 -1 ------- null}
h -t 0.4705824 -s 3 -d 5 -p ping -e 64 -c 0 -i 15 -a 0 -x {1.0 5.0 -1 ------- null}
r -t 0.470992 -s 3 -d 2 -p ping -e 64 -c 0 -i 14 -a 0 -x {4.0 0.0 -1 ------- null}
+ -t 0.470992 -s 2 -d 0 -p ping -e 64 -c 0 -i 14 -a 0 -x {4.0 0.0 -1 ------- null}
- -t 0.470992 -s 2 -d 0 -p ping -e 64 -c 0 -i 14 -a 0 -x {4.0 0.0 -1 ------- null}
h -t 0.470992 -s 2 -d 0 -p ping -e 64 -c 0 -i 14 -a 0 -x {4.0 0.0 -1 ------- null}
r -t 0.481504 -s 2 -d 0 -p ping -e 64 -c 0 -i 14 -a 0 -x {4.0 0.0 -1 ------- null}
r -t 0.4908224 -s 3 -d 5 -p ping -e 64 -c 0 -i 15 -a 0 -x {1.0 5.0 -1 ------- null}
+ -t 0.5 -s 0 -d 2 -p ping -e 64 -c 0 -i 16 -a 0 -x {0.0 4.0 -1 ------- null}
- -t 0.5 -s 0 -d 2 -p ping -e 64 -c 0 -i 16 -a 0 -x {0.0 4.0 -1 ------- null}
h -t 0.5 -s 0 -d 2 -p ping -e 64 -c 0 -i 16 -a 0 -x {0.0 4.0 -1 ------- null}
+ -t 0.5 -s 5 -d 3 -p ping -e 64 -c 0 -i 17 -a 0 -x {5.0 1.0 -1 ------- null}
- -t 0.5 -s 5 -d 3 -p ping -e 64 -c 0 -i 17 -a 0 -x {5.0 1.0 -1 ------- null}
h -t 0.5 -s 5 -d 3 -p ping -e 64 -c 0 -i 17 -a 0 -x {5.0 1.0 -1 ------- null}
r -t 0.510512 -s 0 -d 2 -p ping -e 64 -c 0 -i 16 -a 0 -x {0.0 4.0 -1 ------- null}
+ -t 0.510512 -s 2 -d 3 -p ping -e 64 -c 0 -i 16 -a 0 -x {0.0 4.0 -1 ------- null}
- -t 0.510512 -s 2 -d 3 -p ping -e 64 -c 0 -i 16 -a 0 -x {0.0 4.0 -1 ------- null}
h -t 0.510512 -s 2 -d 3 -p ping -e 64 -c 0 -i 16 -a 0 -x {0.0 4.0 -1 ------- null}
r -t 0.52024 -s 5 -d 3 -p ping -e 64 -c 0 -i 17 -a 0 -x {5.0 1.0 -1 ------- null}
+ -t 0.52024 -s 3 -d 2 -p ping -e 64 -c 0 -i 17 -a 0 -x {5.0 1.0 -1 ------- null}
- -t 0.52024 -s 3 -d 2 -p ping -e 64 -c 0 -i 17 -a 0 -x {5.0 1.0 -1 ------- null}
h -t 0.52024 -s 3 -d 2 -p ping -e 64 -c 0 -i 17 -a 0 -x {5.0 1.0 -1 ------- null}
r -t 0.525632 -s 2 -d 3 -p ping -e 64 -c 0 -i 16 -a 0 -x {0.0 4.0 -1 ------- null}
+ -t 0.525632 -s 3 -d 4 -p ping -e 64 -c 0 -i 16 -a 0 -x {0.0 4.0 -1 ------- null}
- -t 0.525632 -s 3 -d 4 -p ping -e 64 -c 0 -i 16 -a 0 -x {0.0 4.0 -1 ------- null}
h -t 0.525632 -s 3 -d 4 -p ping -e 64 -c 0 -i 16 -a 0 -x {0.0 4.0 -1 ------- null}
r -t 0.53536 -s 3 -d 2 -p ping -e 64 -c 0 -i 17 -a 0 -x {5.0 1.0 -1 ------- null}
+ -t 0.53536 -s 2 -d 1 -p ping -e 64 -c 0 -i 17 -a 0 -x {5.0 1.0 -1 ------- null}
- -t 0.53536 -s 2 -d 1 -p ping -e 64 -c 0 -i 17 -a 0 -x {5.0 1.0 -1 ------- null}
h -t 0.53536 -s 2 -d 1 -p ping -e 64 -c 0 -i 17 -a 0 -x {5.0 1.0 -1 ------- null}
r -t 0.540752 -s 3 -d 4 -p ping -e 64 -c 0 -i 16 -a 0 -x {0.0 4.0 -1 ------- null}
+ -t 0.540752 -s 4 -d 3 -p ping -e 64 -c 0 -i 18 -a 0 -x {4.0 0.0 -1 ------- null}
- -t 0.540752 -s 4 -d 3 -p ping -e 64 -c 0 -i 18 -a 0 -x {4.0 0.0 -1 ------- null}
h -t 0.540752 -s 4 -d 3 -p ping -e 64 -c 0 -i 18 -a 0 -x {4.0 0.0 -1 ------- null}
r -t 0.5454112 -s 2 -d 1 -p ping -e 64 -c 0 -i 17 -a 0 -x {5.0 1.0 -1 ------- null}
+ -t 0.5454112 -s 1 -d 2 -p ping -e 64 -c 0 -i 19 -a 0 -x {1.0 5.0 -1 ------- null}
- -t 0.5454112 -s 1 -d 2 -p ping -e 64 -c 0 -i 19 -a 0 -x {1.0 5.0 -1 ------- null}
h -t 0.5454112 -s 1 -d 2 -p ping -e 64 -c 0 -i 19 -a 0 -x {1.0 5.0 -1 ------- null}
r -t 0.5554624 -s 1 -d 2 -p ping -e 64 -c 0 -i 19 -a 0 -x {1.0 5.0 -1 ------- null}
+ -t 0.5554624 -s 2 -d 3 -p ping -e 64 -c 0 -i 19 -a 0 -x {1.0 5.0 -1 ------- null}
- -t 0.5554624 -s 2 -d 3 -p ping -e 64 -c 0 -i 19 -a 0 -x {1.0 5.0 -1 ------- null}
h -t 0.5554624 -s 2 -d 3 -p ping -e 64 -c 0 -i 19 -a 0 -x {1.0 5.0 -1 ------- null}
r -t 0.555872 -s 4 -d 3 -p ping -e 64 -c 0 -i 18 -a 0 -x {4.0 0.0 -1 ------- null}
+ -t 0.555872 -s 3 -d 2 -p ping -e 64 -c 0 -i 18 -a 0 -x {4.0 0.0 -1 ------- null}
- -t 0.555872 -s 3 -d 2 -p ping -e 64 -c 0 -i 18 -a 0 -x {4.0 0.0 -1 ------- null}
h -t 0.555872 -s 3 -d 2 -p ping -e 64 -c 0 -i 18 -a 0 -x {4.0 0.0 -1 ------- null}
r -t 0.5705824 -s 2 -d 3 -p ping -e 64 -c 0 -i 19 -a 0 -x {1.0 5.0 -1 ------- null}
+ -t 0.5705824 -s 3 -d 5 -p ping -e 64 -c 0 -i 19 -a 0 -x {1.0 5.0 -1 ------- null}
- -t 0.5705824 -s 3 -d 5 -p ping -e 64 -c 0 -i 19 -a 0 -x {1.0 5.0 -1 ------- null}
h -t 0.5705824 -s 3 -d 5 -p ping -e 64 -c 0 -i 19 -a 0 -x {1.0 5.0 -1 ------- null}
r -t 0.570992 -s 3 -d 2 -p ping -e 64 -c 0 -i 18 -a 0 -x {4.0 0.0 -1 ------- null}
+ -t 0.570992 -s 2 -d 0 -p ping -e 64 -c 0 -i 18 -a 0 -x {4.0 0.0 -1 ------- null}
- -t 0.570992 -s 2 -d 0 -p ping -e 64 -c 0 -i 18 -a 0 -x {4.0 0.0 -1 ------- null}
h -t 0.570992 -s 2 -d 0 -p ping -e 64 -c 0 -i 18 -a 0 -x {4.0 0.0 -1 ------- null}
r -t 0.581504 -s 2 -d 0 -p ping -e 64 -c 0 -i 18 -a 0 -x {4.0 0.0 -1 ------- null}
r -t 0.5908224 -s 3 -d 5 -p ping -e 64 -c 0 -i 19 -a 0 -x {1.0 5.0 -1 ------- null}
+ -t 0.6 -s 0 -d 2 -p ping -e 64 -c 0 -i 20 -a 0 -x {0.0 4.0 -1 ------- null}
- -t 0.6 -s 0 -d 2 -p ping -e 64 -c 0 -i 20 -a 0 -x {0.0 4.0 -1 ------- null}
h -t 0.6 -s 0 -d 2 -p ping -e 64 -c 0 -i 20 -a 0 -x {0.0 4.0 -1 ------- null}
+ -t 0.6 -s 5 -d 3 -p ping -e 64 -c 0 -i 21 -a 0 -x {5.0 1.0 -1 ------- null}
- -t 0.6 -s 5 -d 3 -p ping -e 64 -c 0 -i 21 -a 0 -x {5.0 1.0 -1 ------- null}
h -t 0.6 -s 5 -d 3 -p ping -e 64 -c 0 -i 21 -a 0 -x {5.0 1.0 -1 ------- null}
r -t 0.610512 -s 0 -d 2 -p ping -e 64 -c 0 -i 20 -a 0 -x {0.0 4.0 -1 ------- null}
+ -t 0.610512 -s 2 -d 3 -p ping -e 64 -c 0 -i 20 -a 0 -x {0.0 4.0 -1 ------- null}
- -t 0.610512 -s 2 -d 3 -p ping -e 64 -c 0 -i 20 -a 0 -x {0.0 4.0 -1 ------- null}
h -t 0.610512 -s 2 -d 3 -p ping -e 64 -c 0 -i 20 -a 0 -x {0.0 4.0 -1 ------- null}
r -t 0.62024 -s 5 -d 3 -p ping -e 64 -c 0 -i 21 -a 0 -x {5.0 1.0 -1 ------- null}
+ -t 0.62024 -s 3 -d 2 -p ping -e 64 -c 0 -i 21 -a 0 -x {5.0 1.0 -1 ------- null}
- -t 0.62024 -s 3 -d 2 -p ping -e 64 -c 0 -i 21 -a 0 -x {5.0 1.0 -1 ------- null}
h -t 0.62024 -s 3 -d 2 -p ping -e 64 -c 0 -i 21 -a 0 -x {5.0 1.0 -1 ------- null}
r -t 0.625632 -s 2 -d 3 -p ping -e 64 -c 0 -i 20 -a 0 -x {0.0 4.0 -1 ------- null}
+ -t 0.625632 -s 3 -d 4 -p ping -e 64 -c 0 -i 20 -a 0 -x {0.0 4.0 -1 ------- null}
- -t 0.625632 -s 3 -d 4 -p ping -e 64 -c 0 -i 20 -a 0 -x {0.0 4.0 -1 ------- null}
h -t 0.625632 -s 3 -d 4 -p ping -e 64 -c 0 -i 20 -a 0 -x {0.0 4.0 -1 ------- null}
r -t 0.63536 -s 3 -d 2 -p ping -e 64 -c 0 -i 21 -a 0 -x {5.0 1.0 -1 ------- null}
+ -t 0.63536 -s 2 -d 1 -p ping -e 64 -c 0 -i 21 -a 0 -x {5.0 1.0 -1 ------- null}
- -t 0.63536 -s 2 -d 1 -p ping -e 64 -c 0 -i 21 -a 0 -x {5.0 1.0 -1 ------- null}
h -t 0.63536 -s 2 -d 1 -p ping -e 64 -c 0 -i 21 -a 0 -x {5.0 1.0 -1 ------- null}
r -t 0.640752 -s 3 -d 4 -p ping -e 64 -c 0 -i 20 -a 0 -x {0.0 4.0 -1 ------- null}
+ -t 0.640752 -s 4 -d 3 -p ping -e 64 -c 0 -i 22 -a 0 -x {4.0 0.0 -1 ------- null}
- -t 0.640752 -s 4 -d 3 -p ping -e 64 -c 0 -i 22 -a 0 -x {4.0 0.0 -1 ------- null}
h -t 0.640752 -s 4 -d 3 -p ping -e 64 -c 0 -i 22 -a 0 -x {4.0 0.0 -1 ------- null}
r -t 0.6454112 -s 2 -d 1 -p ping -e 64 -c 0 -i 21 -a 0 -x {5.0 1.0 -1 ------- null}
+ -t 0.6454112 -s 1 -d 2 -p ping -e 64 -c 0 -i 23 -a 0 -x {1.0 5.0 -1 ------- null}
- -t 0.6454112 -s 1 -d 2 -p ping -e 64 -c 0 -i 23 -a 0 -x {1.0 5.0 -1 ------- null}
h -t 0.6454112 -s 1 -d 2 -p ping -e 64 -c 0 -i 23 -a 0 -x {1.0 5.0 -1 ------- null}
r -t 0.6554624 -s 1 -d 2 -p ping -e 64 -c 0 -i 23 -a 0 -x {1.0 5.0 -1 ------- null}
+ -t 0.6554624 -s 2 -d 3 -p ping -e 64 -c 0 -i 23 -a 0 -x {1.0 5.0 -1 ------- null}
- -t 0.6554624 -s 2 -d 3 -p ping -e 64 -c 0 -i 23 -a 0 -x {1.0 5.0 -1 ------- null}
h -t 0.6554624 -s 2 -d 3 -p ping -e 64 -c 0 -i 23 -a 0 -x {1.0 5.0 -1 ------- null}
r -t 0.655872 -s 4 -d 3 -p ping -e 64 -c 0 -i 22 -a 0 -x {4.0 0.0 -1 ------- null}
+ -t 0.655872 -s 3 -d 2 -p ping -e 64 -c 0 -i 22 -a 0 -x {4.0 0.0 -1 ------- null}
- -t 0.655872 -s 3 -d 2 -p ping -e 64 -c 0 -i 22 -a 0 -x {4.0 0.0 -1 ------- null}
h -t 0.655872 -s 3 -d 2 -p ping -e 64 -c 0 -i 22 -a 0 -x {4.0 0.0 -1 ------- null}
r -t 0.6705824 -s 2 -d 3 -p ping -e 64 -c 0 -i 23 -a 0 -x {1.0 5.0 -1 ------- null}
+ -t 0.6705824 -s 3 -d 5 -p ping -e 64 -c 0 -i 23 -a 0 -x {1.0 5.0 -1 ------- null}
- -t 0.6705824 -s 3 -d 5 -p ping -e 64 -c 0 -i 23 -a 0 -x {1.0 5.0 -1 ------- null}
h -t 0.6705824 -s 3 -d 5 -p ping -e 64 -c 0 -i 23 -a 0 -x {1.0 5.0 -1 ------- null}
r -t 0.670992 -s 3 -d 2 -p ping -e 64 -c 0 -i 22 -a 0 -x {4.0 0.0 -1 ------- null}
+ -t 0.670992 -s 2 -d 0 -p ping -e 64 -c 0 -i 22 -a 0 -x {4.0 0.0 -1 ------- null}
- -t 0.670992 -s 2 -d 0 -p ping -e 64 -c 0 -i 22 -a 0 -x {4.0 0.0 -1 ------- null}
h -t 0.670992 -s 2 -d 0 -p ping -e 64 -c 0 -i 22 -a 0 -x {4.0 0.0 -1 ------- null}
r -t 0.681504 -s 2 -d 0 -p ping -e 64 -c 0 -i 22 -a 0 -x {4.0 0.0 -1 ------- null}
r -t 0.6908224 -s 3 -d 5 -p ping -e 64 -c 0 -i 23 -a 0 -x {1.0 5.0 -1 ------- null}
+ -t 0.7 -s 0 -d 2 -p ping -e 64 -c 0 -i 24 -a 0 -x {0.0 4.0 -1 ------- null}
- -t 0.7 -s 0 -d 2 -p ping -e 64 -c 0 -i 24 -a 0 -x {0.0 4.0 -1 ------- null}
h -t 0.7 -s 0 -d 2 -p ping -e 64 -c 0 -i 24 -a 0 -x {0.0 4.0 -1 ------- null}
+ -t 0.7 -s 5 -d 3 -p ping -e 64 -c 0 -i 25 -a 0 -x {5.0 1.0 -1 ------- null}
- -t 0.7 -s 5 -d 3 -p ping -e 64 -c 0 -i 25 -a 0 -x {5.0 1.0 -1 ------- null}
h -t 0.7 -s 5 -d 3 -p ping -e 64 -c 0 -i 25 -a 0 -x {5.0 1.0 -1 ------- null}
r -t 0.710512 -s 0 -d 2 -p ping -e 64 -c 0 -i 24 -a 0 -x {0.0 4.0 -1 ------- null}
+ -t 0.710512 -s 2 -d 3 -p ping -e 64 -c 0 -i 24 -a 0 -x {0.0 4.0 -1 ------- null}
- -t 0.710512 -s 2 -d 3 -p ping -e 64 -c 0 -i 24 -a 0 -x {0.0 4.0 -1 ------- null}
h -t 0.710512 -s 2 -d 3 -p ping -e 64 -c 0 -i 24 -a 0 -x {0.0 4.0 -1 ------- null}
r -t 0.72024 -s 5 -d 3 -p ping -e 64 -c 0 -i 25 -a 0 -x {5.0 1.0 -1 ------- null}
+ -t 0.72024 -s 3 -d 2 -p ping -e 64 -c 0 -i 25 -a 0 -x {5.0 1.0 -1 ------- null}
- -t 0.72024 -s 3 -d 2 -p ping -e 64 -c 0 -i 25 -a 0 -x {5.0 1.0 -1 ------- null}
h -t 0.72024 -s 3 -d 2 -p ping -e 64 -c 0 -i 25 -a 0 -x {5.0 1.0 -1 ------- null}
r -t 0.725632 -s 2 -d 3 -p ping -e 64 -c 0 -i 24 -a 0 -x {0.0 4.0 -1 ------- null}
+ -t 0.725632 -s 3 -d 4 -p ping -e 64 -c 0 -i 24 -a 0 -x {0.0 4.0 -1 ------- null}
- -t 0.725632 -s 3 -d 4 -p ping -e 64 -c 0 -i 24 -a 0 -x {0.0 4.0 -1 ------- null}
h -t 0.725632 -s 3 -d 4 -p ping -e 64 -c 0 -i 24 -a 0 -x {0.0 4.0 -1 ------- null}
r -t 0.73536 -s 3 -d 2 -p ping -e 64 -c 0 -i 25 -a 0 -x {5.0 1.0 -1 ------- null}
+ -t 0.73536 -s 2 -d 1 -p ping -e 64 -c 0 -i 25 -a 0 -x {5.0 1.0 -1 ------- null}
- -t 0.73536 -s 2 -d 1 -p ping -e 64 -c 0 -i 25 -a 0 -x {5.0 1.0 -1 ------- null}
h -t 0.73536 -s 2 -d 1 -p ping -e 64 -c 0 -i 25 -a 0 -x {5.0 1.0 -1 ------- null}
r -t 0.740752 -s 3 -d 4 -p ping -e 64 -c 0 -i 24 -a 0 -x {0.0 4.0 -1 ------- null}
+ -t 0.740752 -s 4 -d 3 -p ping -e 64 -c 0 -i 26 -a 0 -x {4.0 0.0 -1 ------- null}
- -t 0.740752 -s 4 -d 3 -p ping -e 64 -c 0 -i 26 -a 0 -x {4.0 0.0 -1 ------- null}
h -t 0.740752 -s 4 -d 3 -p ping -e 64 -c 0 -i 26 -a 0 -x {4.0 0.0 -1 ------- null}
r -t 0.7454112 -s 2 -d 1 -p ping -e 64 -c 0 -i 25 -a 0 -x {5.0 1.0 -1 ------- null}
+ -t 0.7454112 -s 1 -d 2 -p ping -e 64 -c 0 -i 27 -a 0 -x {1.0 5.0 -1 ------- null}
- -t 0.7454112 -s 1 -d 2 -p ping -e 64 -c 0 -i 27 -a 0 -x {1.0 5.0 -1 ------- null}
h -t 0.7454112 -s 1 -d 2 -p ping -e 64 -c 0 -i 27 -a 0 -x {1.0 5.0 -1 ------- null}
r -t 0.7554624 -s 1 -d 2 -p ping -e 64 -c 0 -i 27 -a 0 -x {1.0 5.0 -1 ------- null}
+ -t 0.7554624 -s 2 -d 3 -p ping -e 64 -c 0 -i 27 -a 0 -x {1.0 5.0 -1 ------- null}
- -t 0.7554624 -s 2 -d 3 -p ping -e 64 -c 0 -i 27 -a 0 -x {1.0 5.0 -1 ------- null}
h -t 0.7554624 -s 2 -d 3 -p ping -e 64 -c 0 -i 27 -a 0 -x {1.0 5.0 -1 ------- null}
r -t 0.755872 -s 4 -d 3 -p ping -e 64 -c 0 -i 26 -a 0 -x {4.0 0.0 -1 ------- null}
+ -t 0.755872 -s 3 -d 2 -p ping -e 64 -c 0 -i 26 -a 0 -x {4.0 0.0 -1 ------- null}
- -t 0.755872 -s 3 -d 2 -p ping -e 64 -c 0 -i 26 -a 0 -x {4.0 0.0 -1 ------- null}
h -t 0.755872 -s 3 -d 2 -p ping -e 64 -c 0 -i 26 -a 0 -x {4.0 0.0 -1 ------- null}
r -t 0.7705824 -s 2 -d 3 -p ping -e 64 -c 0 -i 27 -a 0 -x {1.0 5.0 -1 ------- null}
+ -t 0.7705824 -s 3 -d 5 -p ping -e 64 -c 0 -i 27 -a 0 -x {1.0 5.0 -1 ------- null}
- -t 0.7705824 -s 3 -d 5 -p ping -e 64 -c 0 -i 27 -a 0 -x {1.0 5.0 -1 ------- null}
h -t 0.7705824 -s 3 -d 5 -p ping -e 64 -c 0 -i 27 -a 0 -x {1.0 5.0 -1 ------- null}
r -t 0.770992 -s 3 -d 2 -p ping -e 64 -c 0 -i 26 -a 0 -x {4.0 0.0 -1 ------- null}
+ -t 0.770992 -s 2 -d 0 -p ping -e 64 -c 0 -i 26 -a 0 -x {4.0 0.0 -1 ------- null}
- -t 0.770992 -s 2 -d 0 -p ping -e 64 -c 0 -i 26 -a 0 -x {4.0 0.0 -1 ------- null}
h -t 0.770992 -s 2 -d 0 -p ping -e 64 -c 0 -i 26 -a 0 -x {4.0 0.0 -1 ------- null}
r -t 0.781504 -s 2 -d 0 -p ping -e 64 -c 0 -i 26 -a 0 -x {4.0 0.0 -1 ------- null}
r -t 0.7908224 -s 3 -d 5 -p ping -e 64 -c 0 -i 27 -a 0 -x {1.0 5.0 -1 ------- null}
+ -t 0.8 -s 0 -d 2 -p ping -e 64 -c 0 -i 28 -a 0 -x {0.0 4.0 -1 ------- null}
- -t 0.8 -s 0 -d 2 -p ping -e 64 -c 0 -i 28 -a 0 -x {0.0 4.0 -1 ------- null}
h -t 0.8 -s 0 -d 2 -p ping -e 64 -c 0 -i 28 -a 0 -x {0.0 4.0 -1 ------- null}
+ -t 0.8 -s 5 -d 3 -p ping -e 64 -c 0 -i 29 -a 0 -x {5.0 1.0 -1 ------- null}
- -t 0.8 -s 5 -d 3 -p ping -e 64 -c 0 -i 29 -a 0 -x {5.0 1.0 -1 ------- null}
h -t 0.8 -s 5 -d 3 -p ping -e 64 -c 0 -i 29 -a 0 -x {5.0 1.0 -1 ------- null}
r -t 0.810512 -s 0 -d 2 -p ping -e 64 -c 0 -i 28 -a 0 -x {0.0 4.0 -1 ------- null}
+ -t 0.810512 -s 2 -d 3 -p ping -e 64 -c 0 -i 28 -a 0 -x {0.0 4.0 -1 ------- null}
- -t 0.810512 -s 2 -d 3 -p ping -e 64 -c 0 -i 28 -a 0 -x {0.0 4.0 -1 ------- null}
h -t 0.810512 -s 2 -d 3 -p ping -e 64 -c 0 -i 28 -a 0 -x {0.0 4.0 -1 ------- null}
r -t 0.82024 -s 5 -d 3 -p ping -e 64 -c 0 -i 29 -a 0 -x {5.0 1.0 -1 ------- null}
+ -t 0.82024 -s 3 -d 2 -p ping -e 64 -c 0 -i 29 -a 0 -x {5.0 1.0 -1 ------- null}
- -t 0.82024 -s 3 -d 2 -p ping -e 64 -c 0 -i 29 -a 0 -x {5.0 1.0 -1 ------- null}
h -t 0.82024 -s 3 -d 2 -p ping -e 64 -c 0 -i 29 -a 0 -x {5.0 1.0 -1 ------- null}
r -t 0.825632 -s 2 -d 3 -p ping -e 64 -c 0 -i 28 -a 0 -x {0.0 4.0 -1 ------- null}
+ -t 0.825632 -s 3 -d 4 -p ping -e 64 -c 0 -i 28 -a 0 -x {0.0 4.0 -1 ------- null}
- -t 0.825632 -s 3 -d 4 -p ping -e 64 -c 0 -i 28 -a 0 -x {0.0 4.0 -1 ------- null}
h -t 0.825632 -s 3 -d 4 -p ping -e 64 -c 0 -i 28 -a 0 -x {0.0 4.0 -1 ------- null}
r -t 0.83536 -s 3 -d 2 -p ping -e 64 -c 0 -i 29 -a 0 -x {5.0 1.0 -1 ------- null}
+ -t 0.83536 -s 2 -d 1 -p ping -e 64 -c 0 -i 29 -a 0 -x {5.0 1.0 -1 ------- null}
- -t 0.83536 -s 2 -d 1 -p ping -e 64 -c 0 -i 29 -a 0 -x {5.0 1.0 -1 ------- null}