+ 0.1 0 2 ping 64 ------- 0 0.0 4.0 -1 0
- 0.1 0 2 ping 64 ------- 0 0.0 4.0 -1 0
+ 0.1 5 3 ping 64 ------- 0 5.0 1.0 -1 1
- 0.1 5 3 ping 64 ------- 0 5.0 1.0 -1 1
r 0.110512 0 2 ping 64 ------- 0 0.0 4.0 -1 0
+ 0.110512 2 3 ping 64 ------- 0 0.0 4.0 -1 0
- 0.110512 2 3 ping 64 ------- 0 0.0 4.0 -1 0
r 0.12024 5 3 ping 64 ------- 0 5.0 1.0 -1 1
+ 0.12024 3 2 ping 64 ------- 0 5.0 1.0 -1 1
- 0.12024 3 2 ping 64 ------- 0 5.0 1.0 -1 1
r 0.125632 2 3 ping 64 ------- 0 0.0 4.0 -1 0
+ 0.125632 3 4 ping 64 ------- 0 0.0 4.0 -1 0
- 0.125632 3 4 ping 64 ------- 0 0.0 4.0 -1 0
r 0.13536 3 2 ping 64 ------- 0 5.0 1.0 -1 1
+ 0.13536 2 1 ping 64 ------- 0 5.0 1.0 -1 1
- 0.13536 2 1 ping 64 ------- 0 5.0 1.0 -1 1
r 0.140752 3 4 ping 64 ------- 0 0.0 4.0 -1 0
+ 0.140752 4 3 ping 64 ------- 0 4.0 0.0 -1 2
- 0.140752 4 3 ping 64 ------- 0 4.0 0.0 -1 2
r 0.145411 2 1 ping 64 ------- 0 5.0 1.0 -1 1
+ 0.145411 1 2 ping 64 ------- 0 1.0 5.0 -1 3
- 0.145411 1 2 ping 64 ------- 0 1.0 5.0 -1 3
r 0.155462 1 2 ping 64 ------- 0 1.0 5.0 -1 3
+ 0.155462 2 3 ping 64 ------- 0 1.0 5.0 -1 3
- 0.155462 2 3 ping 64 ------- 0 1.0 5.0 -1 3
r 0.155872 4 3 ping 64 ------- 0 4.0 0.0 -1 2
+ 0.155872 3 2 ping 64 ------- 0 4.0 0.0 -1 2
- 0.155872 3 2 ping 64 ------- 0 4.0 0.0 -1 2
r 0.170582 2 3 ping 64 ------- 0 1.0 5.0 -1 3
+ 0.170582 3 5 ping 64 ------- 0 1.0 5.0 -1 3
- 0.170582 3 5 ping 64 ------- 0 1.0 5.0 -1 3
r 0.170992 3 2 ping 64 ------- 0 4.0 0.0 -1 2
+ 0.170992 2 0 ping 64 ------- 0 4.0 0.0 -1 2
- 0.170992 2 0 ping 64 ------- 0 4.0 0.0 -1 2
r 0.181504 2 0 ping 64 ------- 0 4.0 0.0 -1 2
r 0.190822 3 5 ping 64 ------- 0 1.0 5.0 -1 3
+ 0.2 0 2 ping 64 ------- 0 0.0 4.0 -1 4
- 0.2 0 2 ping 64 ------- 0 0.0 4.0 -1 4
+ 0.2 5 3 ping 64 ------- 0 5.0 1.0 -1 5
- 0.2 5 3 ping 64 ------- 0 5.0 1.0 -1 5
r 0.210512 0 2 ping 64 ------- 0 0.0 4.0 -1 4
+ 0.210512 2 3 ping 64 ------- 0 0.0 4.0 -1 4
- 0.210512 2 3 ping 64 ------- 0 0.0 4.0 -1 4
r 0.22024 5 3 ping 64 ------- 0 5.0 1.0 -1 5
+ 0.22024 3 2 ping 64 ------- 0 5.0 1.0 -1 5
- 0.22024 3 2 ping 64 ------- 0 5.0 1.0 -1 5
r 0.225632 2 3 ping 64 ------- 0 0.0 4.0 -1 4
+ 0.225632 3 4 ping 64 ------- 0 0.0 4.0 -1 4
- 0.225632 3 4 ping 64 ------- 0 0.0 4.0 -1 4
r 0.23536 3 2 ping 64 ------- 0 5.0 1.0 -1 5
+ 0.23536 2 1 ping 64 ------- 0 5.0 1.0 -1 5
- 0.23536 2 1 ping 64 ------- 0 5.0 1.0 -1 5
r 0.240752 3 4 ping 64 ------- 0 0.0 4.0 -1 4
+ 0.240752 4 3 ping 64 ------- 0 4.0 0.0 -1 6
- 0.240752 4 3 ping 64 ------- 0 4.0 0.0 -1 6
r 0.245411 2 1 ping 64 ------- 0 5.0 1.0 -1 5
+ 0.245411 1 2 ping 64 ------- 0 1.0 5.0 -1 7
- 0.245411 1 2 ping 64 ------- 0 1.0 5.0 -1 7
r 0.255462 1 2 ping 64 ------- 0 1.0 5.0 -1 7
+ 0.255462 2 3 ping 64 ------- 0 1.0 5.0 -1 7
- 0.255462 2 3 ping 64 ------- 0 1.0 5.0 -1 7
r 0.255872 4 3 ping 64 ------- 0 4.0 0.0 -1 6
+ 0.255872 3 2 ping 64 ------- 0 4.0 0.0 -1 6
- 0.255872 3 2 ping 64 ------- 0 4.0 0.0 -1 6
r 0.270582 2 3 ping 64 ------- 0 1.0 5.0 -1 7
+ 0.270582 3 5 ping 64 ------- 0 1.0 5.0 -1 7
- 0.270582 3 5 ping 64 ------- 0 1.0 5.0 -1 7
r 0.270992 3 2 ping 64 ------- 0 4.0 0.0 -1 6
+ 0.270992 2 0 ping 64 ------- 0 4.0 0.0 -1 6
- 0.270992 2 0 ping 64 ------- 0 4.0 0.0 -1 6
r 0.281504 2 0 ping 64 ------- 0 4.0 0.0 -1 6
r 0.290822 3 5 ping 64 ------- 0 1.0 5.0 -1 7
+ 0.3 0 2 ping 64 ------- 0 0.0 4.0 -1 8
- 0.3 0 2 ping 64 ------- 0 0.0 4.0 -1 8
+ 0.3 5 3 ping 64 ------- 0 5.0 1.0 -1 9
- 0.3 5 3 ping 64 ------- 0 5.0 1.0 -1 9
r 0.310512 0 2 ping 64 ------- 0 0.0 4.0 -1 8
+ 0.310512 2 3 ping 64 ------- 0 0.0 4.0 -1 8
- 0.310512 2 3 ping 64 ------- 0 0.0 4.0 -1 8
r 0.32024 5 3 ping 64 ------- 0 5.0 1.0 -1 9
+ 0.32024 3 2 ping 64 ------- 0 5.0 1.0 -1 9
- 0.32024 3 2 ping 64 ------- 0 5.0 1.0 -1 9
r 0.325632 2 3 ping 64 ------- 0 0.0 4.0 -1 8
+ 0.325632 3 4 ping 64 ------- 0 0.0 4.0 -1 8
- 0.325632 3 4 ping 64 ------- 0 0.0 4.0 -1 8
r 0.33536 3 2 ping 64 ------- 0 5.0 1.0 -1 9
+ 0.33536 2 1 ping 64 ------- 0 5.0 1.0 -1 9
- 0.33536 2 1 ping 64 ------- 0 5.0 1.0 -1 9
r 0.340752 3 4 ping 64 ------- 0 0.0 4.0 -1 8
+ 0.340752 4 3 ping 64 ------- 0 4.0 0.0 -1 10
- 0.340752 4 3 ping 64 ------- 0 4.0 0.0 -1 10
r 0.345411 2 1 ping 64 ------- 0 5.0 1.0 -1 9
+ 0.345411 1 2 ping 64 ------- 0 1.0 5.0 -1 11
- 0.345411 1 2 ping 64 ------- 0 1.0 5.0 -1 11
r 0.355462 1 2 ping 64 ------- 0 1.0 5.0 -1 11
+ 0.355462 2 3 ping 64 ------- 0 1.0 5.0 -1 11
- 0.355462 2 3 ping 64 ------- 0 1.0 5.0 -1 11
r 0.355872 4 3 ping 64 ------- 0 4.0 0.0 -1 10
+ 0.355872 3 2 ping 64 ------- 0 4.0 0.0 -1 10
- 0.355872 3 2 ping 64 ------- 0 4.0 0.0 -1 10
r 0.370582 2 3 ping 64 ------- 0 1.0 5.0 -1 11
+ 0.370582 3 5 ping 64 ------- 0 1.0 5.0 -1 11
- 0.370582 3 5 ping 64 ------- 0 1.0 5.0 -1 11
r 0.370992 3 2 ping 64 ------- 0 4.0 0.0 -1 10
+ 0.370992 2 0 ping 64 ------- 0 4.0 0.0 -1 10
- 0.370992 2 0 ping 64 ------- 0 4.0 0.0 -1 10
r 0.381504 2 0 ping 64 ------- 0 4.0 0.0 -1 10
r 0.390822 3 5 ping 64 ------- 0 1.0 5.0 -1 11
+ 0.4 0 2 ping 64 ------- 0 0.0 4.0 -1 12
- 0.4 0 2 ping 64 ------- 0 0.0 4.0 -1 12
+ 0.4 5 3 ping 64 ------- 0 5.0 1.0 -1 13
- 0.4 5 3 ping 64 ------- 0 5.0 1.0 -1 13
r 0.410512 0 2 ping 64 ------- 0 0.0 4.0 -1 12
+ 0.410512 2 3 ping 64 ------- 0 0.0 4.0 -1 12
- 0.410512 2 3 ping 64 ------- 0 0.0 4.0 -1 12
r 0.42024 5 3 ping 64 ------- 0 5.0 1.0 -1 13
+ 0.42024 3 2 ping 64 ------- 0 5.0 1.0 -1 13
- 0.42024 3 2 ping 64 ------- 0 5.0 1.0 -1 13
r 0.425632 2 3 ping 64 ------- 0 0.0 4.0 -1 12
+ 0.425632 3 4 ping 64 ------- 0 0.0 4.0 -1 12
- 0.425632 3 4 ping 64 ------- 0 0.0 4.0 -1 12
r 0.43536 3 2 ping 64 ------- 0 5.0 1.0 -1 13
+ 0.43536 2 1 ping 64 ------- 0 5.0 1.0 -1 13
- 0.43536 2 1 ping 64 ------- 0 5.0 1.0 -1 13
r 0.440752 3 4 ping 64 ------- 0 0.0 4.0 -1 12
+ 0.440752 4 3 ping 64 ------- 0 4.0 0.0 -1 14
- 0.440752 4 3 ping 64 ------- 0 4.0 0.0 -1 14
r 0.445411 2 1 ping 64 ------- 0 5.0 1.0 -1 13
+ 0.445411 1 2 ping 64 ------- 0 1.0 5.0 -1 15
- 0.445411 1 2 ping 64 ------- 0 1.0 5.0 -1 15
r 0.455462 1 2 ping 64 ------- 0 1.0 5.0 -1 15
+ 0.455462 2 3 ping 64 ------- 0 1.0 5.0 -1 15
- 0.455462 2 3 ping 64 ------- 0 1.0 5.0 -1 15
r 0.455872 4 3 ping 64 ------- 0 4.0 0.0 -1 14
+ 0.455872 3 2 ping 64 ------- 0 4.0 0.0 -1 14
- 0.455872 3 2 ping 64 ------- 0 4.0 0.0 -1 14
r 0.470582 2 3 ping 64 ------- 0 1.0 5.0 -1 15
+ 0.470582 3 5 ping 64 ------- 0 1.0 5.0 -1 15
- 0.470582 3 5 ping 64 ------- 0 1.0 5.0 -1 15
r 0.470992 3 2 ping 64 ------- 0 4.0 0.0 -1 14
+ 0.470992 2 0 ping 64 ------- 0 4.0 0.0 -1 14
- 0.470992 2 0 ping 64 ------- 0 4.0 0.0 -1 14
r 0.481504 2 0 ping 64 ------- 0 4.0 0.0 -1 14
r 0.490822 3 5 ping 64 ------- 0 1.0 5.0 -1 15
+ 0.5 0 2 ping 64 ------- 0 0.0 4.0 -1 16
- 0.5 0 2 ping 64 ------- 0 0.0 4.0 -1 16
+ 0.5 5 3 ping 64 ------- 0 5.0 1.0 -1 17
- 0.5 5 3 ping 64 ------- 0 5.0 1.0 -1 17
r 0.510512 0 2 ping 64 ------- 0 0.0 4.0 -1 16
+ 0.510512 2 3 ping 64 ------- 0 0.0 4.0 -1 16
- 0.510512 2 3 ping 64 ------- 0 0.0 4.0 -1 16
r 0.52024 5 3 ping 64 ------- 0 5.0 1.0 -1 17
+ 0.52024 3 2 ping 64 ------- 0 5.0 1.0 -1 17
- 0.52024 3 2 ping 64 ------- 0 5.0 1.0 -1 17
r 0.525632 2 3 ping 64 ------- 0 0.0 4.0 -1 16
+ 0.525632 3 4 ping 64 ------- 0 0.0 4.0 -1 16
- 0.525632 3 4 ping 64 ------- 0 0.0 4.0 -1 16
r 0.53536 3 2 ping 64 ------- 0 5.0 1.0 -1 17
+ 0.53536 2 1 ping 64 ------- 0 5.0 1.0 -1 17
- 0.53536 2 1 ping 64 ------- 0 5.0 1.0 -1 17
r 0.540752 3 4 ping 64 ------- 0 0.0 4.0 -1 16
+ 0.540752 4 3 ping 64 ------- 0 4.0 0.0 -1 18
- 0.540752 4 3 ping 64 ------- 0 4.0 0.0 -1 18
r 0.545411 2 1 ping 64 ------- 0 5.0 1.0 -1 17
+ 0.545411 1 2 ping 64 ------- 0 1.0 5.0 -1 19
- 0.545411 1 2 ping 64 ------- 0 1.0 5.0 -1 19
r 0.555462 1 2 ping 64 ------- 0 1.0 5.0 -1 19
+ 0.555462 2 3 ping 64 ------- 0 1.0 5.0 -1 19
- 0.555462 2 3 ping 64 ------- 0 1.0 5.0 -1 19
r 0.555872 4 3 ping 64 ------- 0 4.0 0.0 -1 18
+ 0.555872 3 2 ping 64 ------- 0 4.0 0.0 -1 18
- 0.555872 3 2 ping 64 ------- 0 4.0 0.0 -1 18
r 0.570582 2 3 ping 64 ------- 0 1.0 5.0 -1 19
+ 0.570582 3 5 ping 64 ------- 0 1.0 5.0 -1 19
- 0.570582 3 5 ping 64 ------- 0 1.0 5.0 -1 19
r 0.570992 3 2 ping 64 ------- 0 4.0 0.0 -1 18
+ 0.570992 2 0 ping 64 ------- 0 4.0 0.0 -1 18
- 0.570992 2 0 ping 64 ------- 0 4.0 0.0 -1 18
r 0.581504 2 0 ping 64 ------- 0 4.0 0.0 -1 18
r 0.590822 3 5 ping 64 ------- 0 1.0 5.0 -1 19
+ 0.6 0 2 ping 64 ------- 0 0.0 4.0 -1 20
- 0.6 0 2 ping 64 ------- 0 0.0 4.0 -1 20
+ 0.6 5 3 ping 64 ------- 0 5.0 1.0 -1 21
- 0.6 5 3 ping 64 ------- 0 5.0 1.0 -1 21
r 0.610512 0 2 ping 64 ------- 0 0.0 4.0 -1 20
+ 0.610512 2 3 ping 64 ------- 0 0.0 4.0 -1 20
- 0.610512 2 3 ping 64 ------- 0 0.0 4.0 -1 20
r 0.62024 5 3 ping 64 ------- 0 5.0 1.0 -1 21
+ 0.62024 3 2 ping 64 ------- 0 5.0 1.0 -1 21
- 0.62024 3 2 ping 64 ------- 0 5.0 1.0 -1 21
r 0.625632 2 3 ping 64 ------- 0 0.0 4.0 -1 20
+ 0.625632 3 4 ping 64 ------- 0 0.0 4.0 -1 20
- 0.625632 3 4 ping 64 ------- 0 0.0 4.0 -1 20
r 0.63536 3 2 ping 64 ------- 0 5.0 1.0 -1 21
+ 0.63536 2 1 ping 64 ------- 0 5.0 1.0 -1 21
- 0.63536 2 1 ping 64 ------- 0 5.0 1.0 -1 21
r 0.640752 3 4 ping 64 ------- 0 0.0 4.0 -1 20
+ 0.640752 4 3 ping 64 ------- 0 4.0 0.0 -1 22
- 0.640752 4 3 ping 64 ------- 0 4.0 0.0 -1 22
r 0.645411 2 1 ping 64 ------- 0 5.0 1.0 -1 21
+ 0.645411 1 2 ping 64 ------- 0 1.0 5.0 -1 23
- 0.645411 1 2 ping 64 ------- 0 1.0 5.0 -1 23
r 0.655462 1 2 ping 64 ------- 0 1.0 5.0 -1 23
+ 0.655462 2 3 ping 64 ------- 0 1.0 5.0 -1 23
- 0.655462 2 3 ping 64 ------- 0 1.0 5.0 -1 23
r 0.655872 4 3 ping 64 ------- 0 4.0 0.0 -1 22
+ 0.655872 3 2 ping 64 ------- 0 4.0 0.0 -1 22
- 0.655872 3 2 ping 64 ------- 0 4.0 0.0 -1 22
r 0.670582 2 3 ping 64 ------- 0 1.0 5.0 -1 23
+ 0.670582 3 5 ping 64 ------- 0 1.0 5.0 -1 23
- 0.670582 3 5 ping 64 ------- 0 1.0 5.0 -1 23
r 0.670992 3 2 ping 64 ------- 0 4.0 0.0 -1 22
+ 0.670992 2 0 ping 64 ------- 0 4.0 0.0 -1 22
- 0.670992 2 0 ping 64 ------- 0 4.0 0.0 -1 22
r 0.681504 2 0 ping 64 ------- 0 4.0 0.0 -1 22
r 0.690822 3 5 ping 64 ------- 0 1.0 5.0 -1 23
+ 0.7 0 2 ping 64 ------- 0 0.0 4.0 -1 24
- 0.7 0 2 ping 64 ------- 0 0.0 4.0 -1 24
+ 0.7 5 3 ping 64 ------- 0 5.0 1.0 -1 25
- 0.7 5 3 ping 64 ------- 0 5.0 1.0 -1 25
r 0.710512 0 2 ping 64 ------- 0 0.0 4.0 -1 24
+ 0.710512 2 3 ping 64 ------- 0 0.0 4.0 -1 24
- 0.710512 2 3 ping 64 ------- 0 0.0 4.0 -1 24
r 0.72024 5 3 ping 64 ------- 0 5.0 1.0 -1 25
+ 0.72024 3 2 ping 64 ------- 0 5.0 1.0 -1 25
- 0.72024 3 2 ping 64 ------- 0 5.0 1.0 -1 25
r 0.725632 2 3 ping 64 ------- 0 0.0 4.0 -1 24
+ 0.725632 3 4 ping 64 ------- 0 0.0 4.0 -1 24
- 0.725632 3 4 ping 64 ------- 0 0.0 4.0 -1 24
r 0.73536 3 2 ping 64 ------- 0 5.0 1.0 -1 25
+ 0.73536 2 1 ping 64 ------- 0 5.0 1.0 -1 25
- 0.73536 2 1 ping 64 ------- 0 5.0 1.0 -1 25
r 0.740752 3 4 ping 64 ------- 0 0.0 4.0 -1 24
+ 0.740752 4 3 ping 64 ------- 0 4.0 0.0 -1 26
- 0.740752 4 3 ping 64 ------- 0 4.0 0.0 -1 26
r 0.745411 2 1 ping 64 ------- 0 5.0 1.0 -1 25
+ 0.745411 1 2 ping 64 ------- 0 1.0 5.0 -1 27
- 0.745411 1 2 ping 64 ------- 0 1.0 5.0 -1 27
r 0.755462 1 2 ping 64 ------- 0 1.0 5.0 -1 27
+ 0.755462 2 3 ping 64 ------- 0 1.0 5.0 -1 27
- 0.755462 2 3 ping 64 ------- 0 1.0 5.0 -1 27
r 0.755872 4 3 ping 64 ------- 0 4.0 0.0 -1 26
+ 0.755872 3 2 ping 64 ------- 0 4.0 0.0 -1 26
- 0.755872 3 2 ping 64 ------- 0 4.0 0.0 -1 26
r 0.770582 2 3 ping 64 ------- 0 1.0 5.0 -1 27
+ 0.770582 3 5 ping 64 ------- 0 1.0 5.0 -1 27
- 0.770582 3 5 ping 64 ------- 0 1.0 5.0 -1 27
r 0.770992 3 2 ping 64 ------- 0 4.0 0.0 -1 26
+ 0.770992 2 0 ping 64 ------- 0 4.0 0.0 -1 26
- 0.770992 2 0 ping 64 ------- 0 4.0 0.0 -1 26
r 0.781504 2 0 ping 64 ------- 0 4.0 0.0 -1 26
r 0.790822 3 5 ping 64 ------- 0 1.0 5.0 -1 27
+ 0.8 0 2 ping 64 ------- 0 0.0 4.0 -1 28
- 0.8 0 2 ping 64 ------- 0 0.0 4.0 -1 28
+ 0.8 5 3 ping 64 ------- 0 5.0 1.0 -1 29
- 0.8 5 3 ping 64 ------- 0 5.0 1.0 -1 29
r 0.810512 0 2 ping 64 ------- 0 0.0 4.0 -1 28
+ 0.810512 2 3 ping 64 ------- 0 0.0 4.0 -1 28
- 0.810512 2 3 ping 64 ------- 0 0.0 4.0 -1 28
r 0.82024 5 3 ping 64 ------- 0 5.0 1.0 -1 29
+ 0.82024 3 2 ping 64 ------- 0 5.0 1.0 -1 29
- 0.82024 3 2 ping 64 ------- 0 5.0 1.0 -1 29
r 0.825632 2 3 ping 64 ------- 0 0.0 4.0 -1 28
+ 0.825632 3 4 ping 64 ------- 0 0.0 4.0 -1 28
- 0.825632 3 4 ping 64 ------- 0 0.0 4.0 -1 28
r 0.83536 3 2 ping 64 ------- 0 5.0 1.0 -1 29
+ 0.83536 2 1 ping 64 ------- 0 5.0 1.0 -1 29
- 0.83536 2 1 ping 64 ------- 0 5.0 1.0 -1 29
r 0.840752 3 4 ping 64 ------- 0 0.0 4.0 -1 28
+ 0.840752 4 3 ping 64 ------- 0 4.0 0.0 -1 30
- 0.840752 4 3 ping 64 ------- 0 4.0 0.0 -1 30
r 0.845411 2 1 ping 64 ------- 0 5.0 1.0 -1 29
+ 0.845411 1 2 ping 64 ------- 0 1.0 5.0 -1 31
- 0.845411 1 2 ping 64 ------- 0 1.0 5.0 -1 31
r 0.855462 1 2 ping 64 ------- 0 1.0 5.0 -1 31
+ 0.855462 2 3 ping 64 ------- 0 1.0 5.0 -1 31
- 0.855462 2 3 ping 64 ------- 0 1.0 5.0 -1 31
r 0.855872 4 3 ping 64 ------- 0 4.0 0.0 -1 30
+ 0.855872 3 2 ping 64 ------- 0 4.0 0.0 -1 30
- 0.855872 3 2 ping 64 ------- 0 4.0 0.0 -1 30
r 0.870582 2 3 ping 64 ------- 0 1.0 5.0 -1 31
+ 0.870582 3 5 ping 64 ------- 0 1.0 5.0 -1 31
- 0.870582 3 5 ping 64 ------- 0 1.0 5.0 -1 31
r 0.870992 3 2 ping 64 ------- 0 4.0 0.0 -1 30
+ 0.870992 2 0 ping 64 ------- 0 4.0 0.0 -1 30
- 0.870992 2 0 ping 64 ------- 0 4.0 0.0 -1 30
r 0.881504 2 0 ping 64 ------- 0 4.0 0.0 -1 30
r 0.890822 3 5 ping 64 ------- 0 1.0 5.0 -1 31
+ 0.9 0 2 ping 64 ------- 0 0.0 4.0 -1 32
- 0.9 0 2 ping 64 ------- 0 0.0 4.0 -1 32
+ 0.9 5 3 ping 64 ------- 0 5.0 1.0 -1 33
- 0.9 5 3 ping 64 ------- 0 5.0 1.0 -1 33
r 0.910512 0 2 ping 64 ------- 0 0.0 4.0 -1 32
+ 0.910512 2 3 ping 64 ------- 0 0.0 4.0 -1 32
- 0.910512 2 3 ping 64 ------- 0 0.0 4.0 -1 32
r 0.92024 5 3 ping 64 ------- 0 5.0 1.0 -1 33
+ 0.92024 3 2 ping 64 ------- 0 5.0 1.0 -1 33
- 0.92024 3 2 ping 64 ------- 0 5.0 1.0 -1 33
r 0.925632 2 3 ping 64 ------- 0 0.0 4.0 -1 32
+ 0.925632 3 4 ping 64 ------- 0 0.0 4.0 -1 32
- 0.925632 3 4 ping 64 ------- 0 0.0 4.0 -1 32
r 0.93536 3 2 ping 64 ------- 0 5.0 1.0 -1 33
+ 0.93536 2 1 ping 64 ------- 0 5.0 1.0 -1 33
- 0.93536 2 1 ping 64 ------- 0 5.0 1.0 -1 33
r 0.940752 3 4 ping 64 ------- 0 0.0 4.0 -1 32
+ 0.940752 4 3 ping 64 ------- 0 4.0 0.0 -1 34
- 0.940752 4 3 ping 64 ------- 0 4.0 0.0 -1 34
r 0.945411 2 1 ping 64 ------- 0 5.0 1.0 -1 33
+ 0.945411 1 2 ping 64 ------- 0 1.0 5.0 -1 35
- 0.945411 1 2 ping 64 ------- 0 1.0 5.0 -1 35
r 0.955462 1 2 ping 64 ------- 0 1.0 5.0 -1 35
+ 0.955462 2 3 ping 64 ------- 0 1.0 5.0 -1 35
- 0.955462 2 3 ping 64 ------- 0 1.0 5.0 -1 35
r 0.955872 4 3 ping 64 ------- 0 4.0 0.0 -1 34
+ 0.955872 3 2 ping 64 ------- 0 4.0 0.0 -1 34
- 0.955872 3 2 ping 64 ------- 0 4.0 0.0 -1 34
r 0.970582 2 3 ping 64 ------- 0 1.0 5.0 -1 35
+ 0.970582 3 5 ping 64 ------- 0 1.0 5.0 -1 35
- 0.970582 3 5 ping 64 ------- 0 1.0 5.0 -1 35
r 0.970992 3 2 ping 64 ------- 0 4.0 0.0 -1 34
+ 0.970992 2 0 ping 64 ------- 0 4.0 0.0 -1 34
- 0.970992 2 0 ping 64 ------- 0 4.0 0.0 -1 34
r 0.981504 2 0 ping 64 ------- 0 4.0 0.0 -1 34
r 0.990822 3 5 ping 64 ------- 0 1.0 5.0 -1 35
+ 1 0 2 ping 64 ------- 0 0.0 4.0 -1 36
- 1 0 2 ping 64 ------- 0 0.0 4.0 -1 36
+ 1 5 3 ping 64 ------- 0 5.0 1.0 -1 37
- 1 5 3 ping 64 ------- 0 5.0 1.0 -1 37
r 1.010512 0 2 ping 64 ------- 0 0.0 4.0 -1 36
+ 1.010512 2 3 ping 64 ------- 0 0.0 4.0 -1 36
- 1.010512 2 3 ping 64 ------- 0 0.0 4.0 -1 36
r 1.02024 5 3 ping 64 ------- 0 5.0 1.0 -1 37
+ 1.02024 3 2 ping 64 ------- 0 5.0 1.0 -1 37
- 1.02024 3 2 ping 64 ------- 0 5.0 1.0 -1 37
r 1.025632 2 3 ping 64 ------- 0 0.0 4.0 -1 36
+ 1.025632 3 4 ping 64 ------- 0 0.0 4.0 -1 36
- 1.025632 3 4 ping 64 ------- 0 0.0 4.0 -1 36
r 1.03536 3 2 ping 64 ------- 0 5.0 1.0 -1 37
+ 1.03536 2 1 ping 64 ------- 0 5.0 1.0 -1 37
- 1.03536 2 1 ping 64 ------- 0 5.0 1.0 -1 37
r 1.040752 3 4 ping 64 ------- 0 0.0 4.0 -1 36
+ 1.040752 4 3 ping 64 ------- 0 4.0 0.0 -1 38
- 1.040752 4 3 ping 64 ------- 0 4.0 0.0 -1 38
r 1.045411 2 1 ping 64 ------- 0 5.0 1.0 -1 37
+ 1.045411 1 2 ping 64 ------- 0 1.0 5.0 -1 39
- 1.045411 1 2 ping 64 ------- 0 1.0 5.0 -1 39
r 1.055462 1 2 ping 64 ------- 0 1.0 5.0 -1 39
+ 1.055462 2 3 ping 64 ------- 0 1.0 5.0 -1 39
- 1.055462 2 3 ping 64 ------- 0 1.0 5.0 -1 39
r 1.055872 4 3 ping 64 ------- 0 4.0 0.0 -1 38
+ 1.055872 3 2 ping 64 ------- 0 4.0 0.0 -1 38
- 1.055872 3 2 ping 64 ------- 0 4.0 0.0 -1 38
r 1.070582 2 3 ping 64 ------- 0 1.0 5.0 -1 39
+ 1.070582 3 5 ping 64 ------- 0 1.0 5.0 -1 39
- 1.070582 3 5 ping 64 ------- 0 1.0 5.0 -1 39
r 1.070992 3 2 ping 64 ------- 0 4.0 0.0 -1 38
+ 1.070992 2 0 ping 64 ------- 0 4.0 0.0 -1 38
- 1.070992 2 0 ping 64 ------- 0 4.0 0.0 -1 38
r 1.081504 2 0 ping 64 ------- 0 4.0 0.0 -1 38
r 1.090822 3 5 ping 64 ------- 0 1.0 5.0 -1 39
+ 1.1 0 2 ping 64 ------- 0 0.0 4.0 -1 40
- 1.1 0 2 ping 64 ------- 0 0.0 4.0 -1 40
+ 1.1 5 3 ping 64 ------- 0 5.0 1.0 -1 41
- 1.1 5 3 ping 64 ------- 0 5.0 1.0 -1 41
r 1.110512 0 2 ping 64 ------- 0 0.0 4.0 -1 40
+ 1.110512 2 3 ping 64 ------- 0 0.0 4.0 -1 40
- 1.110512 2 3 ping 64 ------- 0 0.0 4.0 -1 40
r 1.12024 5 3 ping 64 ------- 0 5.0 1.0 -1 41
+ 1.12024 3 2 ping 64 ------- 0 5.0 1.0 -1 41
- 1.12024 3 2 ping 64 ------- 0 5.0 1.0 -1 41
r 1.125632 2 3 ping 64 ------- 0 0.0 4.0 -1 40
+ 1.125632 3 4 ping 64 ------- 0 0.0 4.0 -1 40
- 1.125632 3 4 ping 64 ------- 0 0.0 4.0 -1 40
r 1.13536 3 2 ping 64 ------- 0 5.0 1.0 -1 41
+ 1.13536 2 1 ping 64 ------- 0 5.0 1.0 -1 41
- 1.13536 2 1 ping 64 ------- 0 5.0 1.0 -1 41
r 1.140752 3 4 ping 64 ------- 0 0.0 4.0 -1 40
+ 1.140752 4 3 ping 64 ------- 0 4.0 0.0 -1 42
- 1.140752 4 3 ping 64 ------- 0 4.0 0.0 -1 42
r 1.145411 2 1 ping 64 ------- 0 5.0 1.0 -1 41
+ 1.145411 1 2 ping 64 ------- 0 1.0 5.0 -1 43
- 1.145411 1 2 ping 64 ------- 0 1.0 5.0 -1 43
r 1.155462 1 2 ping 64 ------- 0 1.0 5.0 -1 43
+ 1.155462 2 3 ping 64 ------- 0 1.0 5.0 -1 43
- 1.155462 2 3 ping 64 ------- 0 1.0 5.0 -1 43
r 1.155872 4 3 ping 64 ------- 0 4.0 0.0 -1 42
+ 1.155872 3 2 ping 64 ------- 0 4.0 0.0 -1 42
- 1.155872 3 2 ping 64 ------- 0 4.0 0.0 -1 42
r 1.170582 2 3 ping 64 ------- 0 1.0 5.0 -1 43
+ 1.170582 3 5 ping 64 ------- 0 1.0 5.0 -1 43
- 1.170582 3 5 ping 64 ------- 0 1.0 5.0 -1 43
r 1.170992 3 2 ping 64 ------- 0 4.0 0.0 -1 42
+ 1.170992 2 0 ping 64 ------- 0 4.0 0.0 -1 42
- 1.170992 2 0 ping 64 ------- 0 4.0 0.0 -1 42
r 1.181504 2 0 ping 64 ------- 0 4.0 0.0 -1 42
r 1.190822 3 5 ping 64 ------- 0 1.0 5.0 -1 43
+ 1.2 0 2 ping 64 ------- 0 0.0 4.0 -1 44
- 1.2 0 2 ping 64 ------- 0 0.0 4.0 -1 44
+ 1.2 5 3 ping 64 ------- 0 5.0 1.0 -1 45
- 1.2 5 3 ping 64 ------- 0 5.0 1.0 -1 45
r 1.210512 0 2 ping 64 ------- 0 0.0 4.0 -1 44
+ 1.210512 2 3 ping 64 ------- 0 0.0 4.0 -1 44
- 1.210512 2 3 ping 64 ------- 0 0.0 4.0 -1 44
r 1.22024 5 3 ping 64 ------- 0 5.0 1.0 -1 45
+ 1.22024 3 2 ping 64 ------- 0 5.0 1.0 -1 45
- 1.22024 3 2 ping 64 ------- 0 5.0 1.0 -1 45
r 1.225632 2 3 ping 64 ------- 0 0.0 4.0 -1 44
+ 1.225632 3 4 ping 64 ------- 0 0.0 4.0 -1 44
- 1.225632 3 4 ping 64 ------- 0 0.0 4.0 -1 44
r 1.23536 3 2 ping 64 ------- 0 5.0 1.0 -1 45
+ 1.23536 2 1 ping 64 ------- 0 5.0 1.0 -1 45
- 1.23536 2 1 ping 64 ------- 0 5.0 1.0 -1 45
r 1.240752 3 4 ping 64 ------- 0 0.0 4.0 -1 44
+ 1.240752 4 3 ping 64 ------- 0 4.0 0.0 -1 46
- 1.240752 4 3 ping 64 ------- 0 4.0 0.0 -1 46
r 1.245411 2 1 ping 64 ------- 0 5.0 1.0 -1 45
+ 1.245411 1 2 ping 64 ------- 0 1.0 5.0 -1 47
- 1.245411 1 2 ping 64 ------- 0 1.0 5.0 -1 47
r 1.255462 1 2 ping 64 ------- 0 1.0 5.0 -1 47
+ 1.255462 2 3 ping 64 ------- 0 1.0 5.0 -1 47
- 1.255462 2 3 ping 64 ------- 0 1.0 5.0 -1 47
r 1.255872 4 3 ping 64 ------- 0 4.0 0.0 -1 46
+ 1.255872 3 2 ping 64 ------- 0 4.0 0.0 -1 46
- 1.255872 3 2 ping 64 ------- 0 4.0 0.0 -1 46
r 1.270582 2 3 ping 64 ------- 0 1.0 5.0 -1 47
+ 1.270582 3 5 ping 64 ------- 0 1.0 5.0 -1 47
- 1.270582 3 5 ping 64 ------- 0 1.0 5.0 -1 47
r 1.270992 3 2 ping 64 ------- 0 4.0 0.0 -1 46
+ 1.270992 2 0 ping 64 ------- 0 4.0 0.0 -1 46
- 1.270992 2 0 ping 64 ------- 0 4.0 0.0 -1 46
r 1.281504 2 0 ping 64 ------- 0 4.0 0.0 -1 46
r 1.290822 3 5 ping 64 ------- 0 1.0 5.0 -1 47
+ 1.3 0 2 ping 64 ------- 0 0.0 4.0 -1 48
- 1.3 0 2 ping 64 ------- 0 0.0 4.0 -1 48
+ 1.3 5 3 ping 64 ------- 0 5.0 1.0 -1 49
- 1.3 5 3 ping 64 ------- 0 5.0 1.0 -1 49
r 1.310512 0 2 ping 64 ------- 0 0.0 4.0 -1 48
+ 1.310512 2 3 ping 64 ------- 0 0.0 4.0 -1 48
- 1.310512 2 3 ping 64 ------- 0 0.0 4.0 -1 48
r 1.32024 5 3 ping 64 ------- 0 5.0 1.0 -1 49
+ 1.32024 3 2 ping 64 ------- 0 5.0 1.0 -1 49
- 1.32024 3 2 ping 64 ------- 0 5.0 1.0 -1 49
r 1.325632 2 3 ping 64 ------- 0 0.0 4.0 -1 48
+ 1.325632 3 4 ping 64 ------- 0 0.0 4.0 -1 48
- 1.325632 3 4 ping 64 ------- 0 0.0 4.0 -1 48
r 1.33536 3 2 ping 64 ------- 0 5.0 1.0 -1 49
+ 1.33536 2 1 ping 64 ------- 0 5.0 1.0 -1 49
- 1.33536 2 1 ping 64 ------- 0 5.0 1.0 -1 49
r 1.340752 3 4 ping 64 ------- 0 0.0 4.0 -1 48
+ 1.340752 4 3 ping 64 ------- 0 4.0 0.0 -1 50
- 1.340752 4 3 ping 64 ------- 0 4.0 0.0 -1 50
r 1.345411 2 1 ping 64 ------- 0 5.0 1.0 -1 49
+ 1.345411 1 2 ping 64 ------- 0 1.0 5.0 -1 51
- 1.345411 1 2 ping 64 ------- 0 1.0 5.0 -1 51
r 1.355462 1 2 ping 64 ------- 0 1.0 5.0 -1 51
+ 1.355462 2 3 ping 64 ------- 0 1.0 5.0 -1 51
- 1.355462 2 3 ping 64 ------- 0 1.0 5.0 -1 51
r 1.355872 4 3 ping 64 ------- 0 4.0 0.0 -1 50
+ 1.355872 3 2 ping 64 ------- 0 4.0 0.0 -1 50
- 1.355872 3 2 ping 64 ------- 0 4.0 0.0 -1 50
r 1.370582 2 3 ping 64 ------- 0 1.0 5.0 -1 51
+ 1.370582 3 5 ping 64 ------- 0 1.0 5.0 -1 51
- 1.370582 3 5 ping 64 ------- 0 1.0 5.0 -1 51
r 1.370992 3 2 ping 64 ------- 0 4.0 0.0 -1 50
+ 1.370992 2 0 ping 64 ------- 0 4.0 0.0 -1 50
- 1.370992 2 0 ping 64 ------- 0 4.0 0.0 -1 50
r 1.381504 2 0 ping 64 ------- 0 4.0 0.0 -1 50
r 1.390822 3 5 ping 64 ------- 0 1.0 5.0 -1 51
+ 1.4 0 2 ping 64 ------- 0 0.0 4.0 -1 52
- 1.4 0 2 ping 64 ------- 0 0.0 4.0 -1 52
+ 1.4 5 3 ping 64 ------- 0 5.0 1.0 -1 53
- 1.4 5 3 ping 64 ------- 0 5.0 1.0 -1 53
r 1.410512 0 2 ping 64 ------- 0 0.0 4.0 -1 52
+ 1.410512 2 3 ping 64 ------- 0 0.0 4.0 -1 52
- 1.410512 2 3 ping 64 ------- 0 0.0 4.0 -1 52
r 1.42024 5 3 ping 64 ------- 0 5.0 1.0 -1 53
+ 1.42024 3 2 ping 64 ------- 0 5.0 1.0 -1 53
- 1.42024 3 2 ping 64 ------- 0 5.0 1.0 -1 53
r 1.425632 2 3 ping 64 ------- 0 0.0 4.0 -1 52
+ 1.425632 3 4 ping 64 ------- 0 0.0 4.0 -1 52
- 1.425632 3 4 ping 64 ------- 0 0.0 4.0 -1 52
r 1.43536 3 2 ping 64 ------- 0 5.0 1.0 -1 53
+ 1.43536 2 1 ping 64 ------- 0 5.0 1.0 -1 53
- 1.43536 2 1 ping 64 ------- 0 5.0 1.0 -1 53
r 1.440752 3 4 ping 64 ------- 0 0.0 4.0 -1 52
+ 1.440752 4 3 ping 64 ------- 0 4.0 0.0 -1 54
- 1.440752 4 3 ping 64 ------- 0 4.0 0.0 -1 54
r 1.445411 2 1 ping 64 ------- 0 5.0 1.0 -1 53
+ 1.445411 1 2 ping 64 ------- 0 1.0 5.0 -1 55
- 1.445411 1 2 ping 64 ------- 0 1.0 5.0 -1 55
r 1.455462 1 2 ping 64 ------- 0 1.0 5.0 -1 55
+ 1.455462 2 3 ping 64 ------- 0 1.0 5.0 -1 55
- 1.455462 2 3 ping 64 ------- 0 1.0 5.0 -1 55
r 1.455872 4 3 ping 64 ------- 0 4.0 0.0 -1 54
+ 1.455872 3 2 ping 64 ------- 0 4.0 0.0 -1 54
- 1.455872 3 2 ping 64 ------- 0 4.0 0.0 -1 54
r 1.470582 2 3 ping 64 ------- 0 1.0 5.0 -1 55
+ 1.470582 3 5 ping 64 ------- 0 1.0 5.0 -1 55
- 1.470582 3 5 ping 64 ------- 0 1.0 5.0 -1 55
r 1.470992 3 2 ping 64 ------- 0 4.0 0.0 -1 54
+ 1.470992 2 0 ping 64 ------- 0 4.0 0.0 -1 54
- 1.470992 2 0 ping 64 ------- 0 4.0 0.0 -1 54
r 1.481504 2 0 ping 64 ------- 0 4.0 0.0 -1 54
r 1.490822 3 5 ping 64 ------- 0 1.0 5.0 -1 55
+ 1.5 0 2 ping 64 ------- 0 0.0 4.0 -1 56
- 1.5 0 2 ping 64 ------- 0 0.0 4.0 -1 56
+ 1.5 5 3 ping 64 ------- 0 5.0 1.0 -1 57
- 1.5 5 3 ping 64 ------- 0 5.0 1.0 -1 57
r 1.510512 0 2 ping 64 ------- 0 0.0 4.0 -1 56
+ 1.510512 2 3 ping 64 ------- 0 0.0 4.0 -1 56
- 1.510512 2 3 ping 64 ------- 0 0.0 4.0 -1 56
r 1.52024 5 3 ping 64 ------- 0 5.0 1.0 -1 57
+ 1.52024 3 2 ping 64 ------- 0 5.0 1.0 -1 57
- 1.52024 3 2 ping 64 ------- 0 5.0 1.0 -1 57
r 1.525632 2 3 ping 64 ------- 0 0.0 4.0 -1 56
+ 1.525632 3 4 ping 64 ------- 0 0.0 4.0 -1 56
- 1.525632 3 4 ping 64 ------- 0 0.0 4.0 -1 56
r 1.53536 3 2 ping 64 ------- 0 5.0 1.0 -1 57
+ 1.53536 2 1 ping 64 ------- 0 5.0 1.0 -1 57
- 1.53536 2 1 ping 64 ------- 0 5.0 1.0 -1 57
r 1.540752 3 4 ping 64 ------- 0 0.0 4.0 -1 56
+ 1.540752 4 3 ping 64 ------- 0 4.0 0.0 -1 58
- 1.540752 4 3 ping 64 ------- 0 4.0 0.0 -1 58
r 1.545411 2 1 ping 64 ------- 0 5.0 1.0 -1 57
+ 1.545411 1 2 ping 64 ------- 0 1.0 5.0 -1 59
- 1.545411 1 2 ping 64 ------- 0 1.0 5.0 -1 59
r 1.555462 1 2 ping 64 ------- 0 1.0 5.0 -1 59
+ 1.555462 2 3 ping 64 ------- 0 1.0 5.0 -1 59
- 1.555462 2 3 ping 64 ------- 0 1.0 5.0 -1 59
r 1.555872 4 3 ping 64 ------- 0 4.0 0.0 -1 58
+ 1.555872 3 2 ping 64 ------- 0 4.0 0.0 -1 58
- 1.555872 3 2 ping 64 ------- 0 4.0 0.0 -1 58
r 1.570582 2 3 ping 64 ------- 0 1.0 5.0 -1 59
+ 1.570582 3 5 ping 64 ------- 0 1.0 5.0 -1 59
- 1.570582 3 5 ping 64 ------- 0 1.0 5.0 -1 59
r 1.570992 3 2 ping 64 ------- 0 4.0 0.0 -1 58
+ 1.570992 2 0 ping 64 ------- 0 4.0 0.0 -1 58
- 1.570992 2 0 ping 64 ------- 0 4.0 0.0 -1 58
r 1.581504 2 0 ping 64 ------- 0 4.0 0.0 -1 58
r 1.590822 3 5 ping 64 ------- 0 1.0 5.0 -1 59
+ 1.6 0 2 ping 64 ------- 0 0.0 4.0 -1 60
- 1.6 0 2 ping 64 ------- 0 0.0 4.0 -1 60
+ 1.6 5 3 ping 64 ------- 0 5.0 1.0 -1 61
- 1.6 5 3 ping 64 ------- 0 5.0 1.0 -1 61
r 1.610512 0 2 ping 64 ------- 0 0.0 4.0 -1 60
+ 1.610512 2 3 ping 64 ------- 0 0.0 4.0 -1 60
- 1.610512 2 3 ping 64 ------- 0 0.0 4.0 -1 60
r 1.62024 5 3 ping 64 ------- 0 5.0 1.0 -1 61
+ 1.62024 3 2 ping 64 ------- 0 5.0 1.0 -1 61
- 1.62024 3 2 ping 64 ------- 0 5.0 1.0 -1 61
r 1.625632 2 3 ping 64 ------- 0 0.0 4.0 -1 60
+ 1.625632 3 4 ping 64 ------- 0 0.0 4.0 -1 60
- 1.625632 3 4 ping 64 ------- 0 0.0 4.0 -1 60
r 1.63536 3 2 ping 64 ------- 0 5.0 1.0 -1 61
+ 1.63536 2 1 ping 64 ------- 0 5.0 1.0 -1 61
- 1.63536 2 1 ping 64 ------- 0 5.0 1.0 -1 61
r 1.640752 3 4 ping 64 ------- 0 0.0 4.0 -1 60
+ 1.640752 4 3 ping 64 ------- 0 4.0 0.0 -1 62
- 1.640752 4 3 ping 64 ------- 0 4.0 0.0 -1 62
r 1.645411 2 1 ping 64 ------- 0 5.0 1.0 -1 61
+ 1.645411 1 2 ping 64 ------- 0 1.0 5.0 -1 63
- 1.645411 1 2 ping 64 ------- 0 1.0 5.0 -1 63
r 1.655462 1 2 ping 64 ------- 0 1.0 5.0 -1 63
+ 1.655462 2 3 ping 64 ------- 0 1.0 5.0 -1 63
- 1.655462 2 3 ping 64 ------- 0 1.0 5.0 -1 63
r 1.655872 4 3 ping 64 ------- 0 4.0 0.0 -1 62
+ 1.655872 3 2 ping 64 ------- 0 4.0 0.0 -1 62
- 1.655872 3 2 ping 64 ------- 0 4.0 0.0 -1 62
r 1.670582 2 3 ping 64 ------- 0 1.0 5.0 -1 63
+ 1.670582 3 5 ping 64 ------- 0 1.0 5.0 -1 63
- 1.670582 3 5 ping 64 ------- 0 1.0 5.0 -1 63
r 1.670992 3 2 ping 64 ------- 0 4.0 0.0 -1 62
+ 1.670992 2 0 ping 64 ------- 0 4.0 0.0 -1 62
- 1.670992 2 0 ping 64 ------- 0 4.0 0.0 -1 62
r 1.681504 2 0 ping 64 ------- 0 4.0 0.0 -1 62
r 1.690822 3 5 ping 64 ------- 0 1.0 5.0 -1 63
+ 1.7 0 2 ping 64 ------- 0 0.0 4.0 -1 64
- 1.7 0 2 ping 64 ------- 0 0.0 4.0 -1 64
+ 1.7 5 3 ping 64 ------- 0 5.0 1.0 -1 65
- 1.7 5 3 ping 64 ------- 0 5.0 1.0 -1 65
r 1.710512 0 2 ping 64 ------- 0 0.0 4.0 -1 64
+ 1.710512 2 3 ping 64 ------- 0 0.0 4.0 -1 64
- 1.710512 2 3 ping 64 ------- 0 0.0 4.0 -1 64
r 1.72024 5 3 ping 64 ------- 0 5.0 1.0 -1 65
+ 1.72024 3 2 ping 64 ------- 0 5.0 1.0 -1 65
- 1.72024 3 2 ping 64 ------- 0 5.0 1.0 -1 65
r 1.725632 2 3 ping 64 ------- 0 0.0 4.0 -1 64
+ 1.725632 3 4 ping 64 ------- 0 0.0 4.0 -1 64
- 1.725632 3 4 ping 64 ------- 0 0.0 4.0 -1 64
r 1.73536 3 2 ping 64 ------- 0 5.0 1.0 -1 65
+ 1.73536 2 1 ping 64 ------- 0 5.0 1.0 -1 65
- 1.73536 2 1 ping 64 ------- 0 5.0 1.0 -1 65
r 1.740752 3 4 ping 64 ------- 0 0.0 4.0 -1 64
+ 1.740752 4 3 ping 64 ------- 0 4.0 0.0 -1 66
- 1.740752 4 3 ping 64 ------- 0 4.0 0.0 -1 66
r 1.745411 2 1 ping 64 ------- 0 5.0 1.0 -1 65
+ 1.745411 1 2 ping 64 ------- 0 1.0 5.0 -1 67
- 1.745411 1 2 ping 64 ------- 0 1.0 5.0 -1 67
r 1.755462 1 2 ping 64 ------- 0 1.0 5.0 -1 67
+ 1.755462 2 3 ping 64 ------- 0 1.0 5.0 -1 67
- 1.755462 2 3 ping 64 ------- 0 1.0 5.0 -1 67
r 1.755872 4 3 ping 64 ------- 0 4.0 0.0 -1 66
+ 1.755872 3 2 ping 64 ------- 0 4.0 0.0 -1 66
- 1.755872 3 2 ping 64 ------- 0 4.0 0.0 -1 66
r 1.770582 2 3 ping 64 ------- 0 1.0 5.0 -1 67
+ 1.770582 3 5 ping 64 ------- 0 1.0 5.0 -1 67
- 1.770582 3 5 ping 64 ------- 0 1.0 5.0 -1 67
r 1.770992 3 2 ping 64 ------- 0 4.0 0.0 -1 66
+ 1.770992 2 0 ping 64 ------- 0 4.0 0.0 -1 66
- 1.770992 2 0 ping 64 ------- 0 4.0 0.0 -1 66
r 1.781504 2 0 ping 64 ------- 0 4.0 0.0 -1 66
r 1.790822 3 5 ping 64 ------- 0 1.0 5.0 -1 67
+ 1.8 0 2 ping 64 ------- 0 0.0 4.0 -1 68
- 1.8 0 2 ping 64 ------- 0 0.0 4.0 -1 68
+ 1.8 5 3 ping 64 ------- 0 5.0 1.0 -1 69
- 1.8 5 3 ping 64 ------- 0 5.0 1.0 -1 69
r 1.810512 0 2 ping 64 ------- 0 0.0 4.0 -1 68
+ 1.810512 2 3 ping 64 ------- 0 0.0 4.0 -1 68
- 1.810512 2 3 ping 64 ------- 0 0.0 4.0 -1 68
r 1.82024 5 3 ping 64 ------- 0 5.0 1.0 -1 69
+ 1.82024 3 2 ping 64 ------- 0 5.0 1.0 -1 69
- 1.82024 3 2 ping 64 ------- 0 5.0 1.0 -1 69
r 1.825632 2 3 ping 64 ------- 0 0.0 4.0 -1 68
+ 1.825632 3 4 ping 64 ------- 0 0.0 4.0 -1 68
- 1.825632 3 4 ping 64 ------- 0 0.0 4.0 -1 68
r 1.83536 3 2 ping 64 ------- 0 5.0 1.0 -1 69
+ 1.83536 2 1 ping 64 ------- 0 5.0 1.0 -1 69
- 1.83536 2 1 ping 64 ------- 0 5.0 1.0 -1 69
r 1.840752 3 4 ping 64 ------- 0 0.0 4.0 -1 68
+ 1.840752 4 3 ping 64 ------- 0 4.0 0.0 -1 70
- 1.840752 4 3 ping 64 ------- 0 4.0 0.0 -1 70
r 1.845411 2 1 ping 64 ------- 0 5.0 1.0 -1 69
+ 1.845411 1 2 ping 64 ------- 0 1.0 5.0 -1 71
- 1.845411 1 2 ping 64 ------- 0 1.0 5.0 -1 71
r 1.855462 1 2 ping 64 ------- 0 1.0 5.0 -1 71
+ 1.855462 2 3 ping 64 ------- 0 1.0 5.0 -1 71
- 1.855462 2 3 ping 64 ------- 0 1.0 5.0 -1 71
r 1.855872 4 3 ping 64 ------- 0 4.0 0.0 -1 70
+ 1.855872 3 2 ping 64 ------- 0 4.0 0.0 -1 70
- 1.855872 3 2 ping 64 ------- 0 4.0 0.0 -1 70
r 1.870582 2 3 ping 64 ------- 0 1.0 5.0 -1 71
+ 1.870582 3 5 ping 64 ------- 0 1.0 5.0 -1 71
- 1.870582 3 5 ping 64 ------- 0 1.0 5.0 -1 71
r 1.870992 3 2 ping 64 ------- 0 4.0 0.0 -1 70
+ 1.870992 2 0 ping 64 ------- 0 4.0 0.0 -1 70
- 1.870992 2 0 ping 64 ------- 0 4.0 0.0 -1 70
r 1.881504 2 0 ping 64 ------- 0 4.0 0.0 -1 70
r 1.890822 3 5 ping 64 ------- 0 1.0 5.0 -1 71
+ 1.9 0 2 ping 64 ------- 0 0.0 4.0 -1 72
- 1.9 0 2 ping 64 ------- 0 0.0 4.0 -1 72